+ 1 0 2 tcp 40 ------- 0 0.0 5.0 0 0
- 1 0 2 tcp 40 ------- 0 0.0 5.0 0 0
r 1.00216 0 2 tcp 40 ------- 0 0.0 5.0 0 0
+ 1.00216 2 3 tcp 40 ------- 0 0.0 5.0 0 0
- 1.00216 2 3 tcp 40 ------- 0 0.0 5.0 0 0
r 1.00432 2 3 tcp 40 ------- 0 0.0 5.0 0 0
+ 1.00432 3 5 tcp 40 ------- 0 0.0 5.0 0 0
- 1.00432 3 5 tcp 40 ------- 0 0.0 5.0 0 0
r 1.00648 3 5 tcp 40 ------- 0 0.0 5.0 0 0
+ 1.00648 5 3 ack 40 ------- 0 5.0 0.0 0 1
- 1.00648 5 3 ack 40 ------- 0 5.0 0.0 0 1
r 1.00864 5 3 ack 40 ------- 0 5.0 0.0 0 1
+ 1.00864 3 2 ack 40 ------- 0 5.0 0.0 0 1
- 1.00864 3 2 ack 40 ------- 0 5.0 0.0 0 1
r 1.0108 3 2 ack 40 ------- 0 5.0 0.0 0 1
+ 1.0108 2 0 ack 40 ------- 0 5.0 0.0 0 1
- 1.0108 2 0 ack 40 ------- 0 5.0 0.0 0 1
r 1.01296 2 0 ack 40 ------- 0 5.0 0.0 0 1
+ 1.01296 0 2 tcp 1040 ------- 0 0.0 5.0 1 2
- 1.01296 0 2 tcp 1040 ------- 0 0.0 5.0 1 2
+ 1.01296 0 2 tcp 1040 ------- 0 0.0 5.0 2 3
- 1.01712 0 2 tcp 1040 ------- 0 0.0 5.0 2 3
r 1.01912 0 2 tcp 1040 ------- 0 0.0 5.0 1 2
+ 1.01912 2 3 tcp 1040 ------- 0 0.0 5.0 1 2
- 1.01912 2 3 tcp 1040 ------- 0 0.0 5.0 1 2
r 1.02328 0 2 tcp 1040 ------- 0 0.0 5.0 2 3
+ 1.02328 2 3 tcp 1040 ------- 0 0.0 5.0 2 3
- 1.02328 2 3 tcp 1040 ------- 0 0.0 5.0 2 3
r 1.02528 2 3 tcp 1040 ------- 0 0.0 5.0 1 2
+ 1.02528 3 5 tcp 1040 ------- 0 0.0 5.0 1 2
- 1.02528 3 5 tcp 1040 ------- 0 0.0 5.0 1 2
r 1.02944 2 3 tcp 1040 ------- 0 0.0 5.0 2 3
+ 1.02944 3 5 tcp 1040 ------- 0 0.0 5.0 2 3
- 1.02944 3 5 tcp 1040 ------- 0 0.0 5.0 2 3
r 1.03144 3 5 tcp 1040 ------- 0 0.0 5.0 1 2
+ 1.03144 5 3 ack 40 ------- 0 5.0 0.0 1 4
- 1.03144 5 3 ack 40 ------- 0 5.0 0.0 1 4
r 1.0336 5 3 ack 40 ------- 0 5.0 0.0 1 4
+ 1.0336 3 2 ack 40 ------- 0 5.0 0.0 1 4
- 1.0336 3 2 ack 40 ------- 0 5.0 0.0 1 4
r 1.0356 3 5 tcp 1040 ------- 0 0.0 5.0 2 3
+ 1.0356 5 3 ack 40 ------- 0 5.0 0.0 2 5
- 1.0356 5 3 ack 40 ------- 0 5.0 0.0 2 5
r 1.03576 3 2 ack 40 ------- 0 5.0 0.0 1 4
+ 1.03576 2 0 ack 40 ------- 0 5.0 0.0 1 4
- 1.03576 2 0 ack 40 ------- 0 5.0 0.0 1 4
r 1.03776 5 3 ack 40 ------- 0 5.0 0.0 2 5
+ 1.03776 3 2 ack 40 ------- 0 5.0 0.0 2 5
- 1.03776 3 2 ack 40 ------- 0 5.0 0.0 2 5
r 1.03792 2 0 ack 40 ------- 0 5.0 0.0 1 4
+ 1.03792 0 2 tcp 1040 ------- 0 0.0 5.0 3 6
- 1.03792 0 2 tcp 1040 ------- 0 0.0 5.0 3 6
+ 1.03792 0 2 tcp 1040 ------- 0 0.0 5.0 4 7
r 1.03992 3 2 ack 40 ------- 0 5.0 0.0 2 5
+ 1.03992 2 0 ack 40 ------- 0 5.0 0.0 2 5
- 1.03992 2 0 ack 40 ------- 0 5.0 0.0 2 5
- 1.04208 0 2 tcp 1040 ------- 0 0.0 5.0 4 7
r 1.04208 2 0 ack 40 ------- 0 5.0 0.0 2 5
+ 1.04208 0 2 tcp 1040 ------- 0 0.0 5.0 5 8
+ 1.04208 0 2 tcp 1040 ------- 0 0.0 5.0 6 9
r 1.04408 0 2 tcp 1040 ------- 0 0.0 5.0 3 6
+ 1.04408 2 3 tcp 1040 ------- 0 0.0 5.0 3 6
- 1.04408 2 3 tcp 1040 ------- 0 0.0 5.0 3 6
- 1.04624 0 2 tcp 1040 ------- 0 0.0 5.0 5 8
r 1.04824 0 2 tcp 1040 ------- 0 0.0 5.0 4 7
+ 1.04824 2 3 tcp 1040 ------- 0 0.0 5.0 4 7
- 1.04824 2 3 tcp 1040 ------- 0 0.0 5.0 4 7
r 1.05024 2 3 tcp 1040 ------- 0 0.0 5.0 3 6
+ 1.05024 3 5 tcp 1040 ------- 0 0.0 5.0 3 6
- 1.05024 3 5 tcp 1040 ------- 0 0.0 5.0 3 6
- 1.0504 0 2 tcp 1040 ------- 0 0.0 5.0 6 9
r 1.0524 0 2 tcp 1040 ------- 0 0.0 5.0 5 8
+ 1.0524 2 3 tcp 1040 ------- 0 0.0 5.0 5 8
- 1.0524 2 3 tcp 1040 ------- 0 0.0 5.0 5 8
r 1.0544 2 3 tcp 1040 ------- 0 0.0 5.0 4 7
+ 1.0544 3 5 tcp 1040 ------- 0 0.0 5.0 4 7
- 1.0544 3 5 tcp 1040 ------- 0 0.0 5.0 4 7
r 1.0564 3 5 tcp 1040 ------- 0 0.0 5.0 3 6
+ 1.0564 5 3 ack 40 ------- 0 5.0 0.0 3 10
- 1.0564 5 3 ack 40 ------- 0 5.0 0.0 3 10
r 1.05656 0 2 tcp 1040 ------- 0 0.0 5.0 6 9
+ 1.05656 2 3 tcp 1040 ------- 0 0.0 5.0 6 9
- 1.05656 2 3 tcp 1040 ------- 0 0.0 5.0 6 9
r 1.05856 2 3 tcp 1040 ------- 0 0.0 5.0 5 8
+ 1.05856 3 5 tcp 1040 ------- 0 0.0 5.0 5 8
- 1.05856 3 5 tcp 1040 ------- 0 0.0 5.0 5 8
r 1.05856 5 3 ack 40 ------- 0 5.0 0.0 3 10
+ 1.05856 3 2 ack 40 ------- 0 5.0 0.0 3 10
- 1.05856 3 2 ack 40 ------- 0 5.0 0.0 3 10
r 1.06056 3 5 tcp 1040 ------- 0 0.0 5.0 4 7
+ 1.06056 5 3 ack 40 ------- 0 5.0 0.0 4 11
- 1.06056 5 3 ack 40 ------- 0 5.0 0.0 4 11
r 1.06072 3 2 ack 40 ------- 0 5.0 0.0 3 10
+ 1.06072 2 0 ack 40 ------- 0 5.0 0.0 3 10
- 1.06072 2 0 ack 40 ------- 0 5.0 0.0 3 10
r 1.06272 2 3 tcp 1040 ------- 0 0.0 5.0 6 9
+ 1.06272 3 5 tcp 1040 ------- 0 0.0 5.0 6 9
- 1.06272 3 5 tcp 1040 ------- 0 0.0 5.0 6 9
r 1.06272 5 3 ack 40 ------- 0 5.0 0.0 4 11
+ 1.06272 3 2 ack 40 ------- 0 5.0 0.0 4 11
- 1.06272 3 2 ack 40 ------- 0 5.0 0.0 4 11
r 1.06288 2 0 ack 40 ------- 0 5.0 0.0 3 10
+ 1.06288 0 2 tcp 1040 ------- 0 0.0 5.0 7 12
- 1.06288 0 2 tcp 1040 ------- 0 0.0 5.0 7 12
+ 1.06288 0 2 tcp 1040 ------- 0 0.0 5.0 8 13
r 1.06472 3 5 tcp 1040 ------- 0 0.0 5.0 5 8
+ 1.06472 5 3 ack 40 ------- 0 5.0 0.0 5 14
- 1.06472 5 3 ack 40 ------- 0 5.0 0.0 5 14
r 1.06488 3 2 ack 40 ------- 0 5.0 0.0 4 11
+ 1.06488 2 0 ack 40 ------- 0 5.0 0.0 4 11
- 1.06488 2 0 ack 40 ------- 0 5.0 0.0 4 11
r 1.06688 5 3 ack 40 ------- 0 5.0 0.0 5 14
+ 1.06688 3 2 ack 40 ------- 0 5.0 0.0 5 14
- 1.06688 3 2 ack 40 ------- 0 5.0 0.0 5 14
- 1.06704 0 2 tcp 1040 ------- 0 0.0 5.0 8 13
r 1.06704 2 0 ack 40 ------- 0 5.0 0.0 4 11
+ 1.06704 0 2 tcp 1040 ------- 0 0.0 5.0 9 15
+ 1.06704 0 2 tcp 1040 ------- 0 0.0 5.0 10 16
r 1.06888 3 5 tcp 1040 ------- 0 0.0 5.0 6 9
+ 1.06888 5 3 ack 40 ------- 0 5.0 0.0 6 17
- 1.06888 5 3 ack 40 ------- 0 5.0 0.0 6 17
r 1.06904 0 2 tcp 1040 ------- 0 0.0 5.0 7 12
+ 1.06904 2 3 tcp 1040 ------- 0 0.0 5.0 7 12
- 1.06904 2 3 tcp 1040 ------- 0 0.0 5.0 7 12
r 1.06904 3 2 ack 40 ------- 0 5.0 0.0 5 14
+ 1.06904 2 0 ack 40 ------- 0 5.0 0.0 5 14
- 1.06904 2 0 ack 40 ------- 0 5.0 0.0 5 14
r 1.07104 5 3 ack 40 ------- 0 5.0 0.0 6 17
+ 1.07104 3 2 ack 40 ------- 0 5.0 0.0 6 17
- 1.07104 3 2 ack 40 ------- 0 5.0 0.0 6 17
- 1.0712 0 2 tcp 1040 ------- 0 0.0 5.0 9 15
r 1.0712 2 0 ack 40 ------- 0 5.0 0.0 5 14
+ 1.0712 0 2 tcp 1040 ------- 0 0.0 5.0 11 18
+ 1.0712 0 2 tcp 1040 ------- 0 0.0 5.0 12 19
r 1.0732 0 2 tcp 1040 ------- 0 0.0 5.0 8 13
+ 1.0732 2 3 tcp 1040 ------- 0 0.0 5.0 8 13
- 1.0732 2 3 tcp 1040 ------- 0 0.0 5.0 8 13
r 1.0732 3 2 ack 40 ------- 0 5.0 0.0 6 17
+ 1.0732 2 0 ack 40 ------- 0 5.0 0.0 6 17
- 1.0732 2 0 ack 40 ------- 0 5.0 0.0 6 17
r 1.0752 2 3 tcp 1040 ------- 0 0.0 5.0 7 12
+ 1.0752 3 5 tcp 1040 ------- 0 0.0 5.0 7 12
- 1.0752 3 5 tcp 1040 ------- 0 0.0 5.0 7 12
- 1.07536 0 2 tcp 1040 ------- 0 0.0 5.0 10 16
r 1.07536 2 0 ack 40 ------- 0 5.0 0.0 6 17
+ 1.07536 0 2 tcp 1040 ------- 0 0.0 5.0 13 20
+ 1.07536 0 2 tcp 1040 ------- 0 0.0 5.0 14 21
r 1.07736 0 2 tcp 1040 ------- 0 0.0 5.0 9 15
+ 1.07736 2 3 tcp 1040 ------- 0 0.0 5.0 9 15
- 1.07736 2 3 tcp 1040 ------- 0 0.0 5.0 9 15
r 1.07936 2 3 tcp 1040 ------- 0 0.0 5.0 8 13
+ 1.07936 3 5 tcp 1040 ------- 0 0.0 5.0 8 13
- 1.07936 3 5 tcp 1040 ------- 0 0.0 5.0 8 13
- 1.07952 0 2 tcp 1040 ------- 0 0.0 5.0 11 18
r 1.08136 3 5 tcp 1040 ------- 0 0.0 5.0 7 12
+ 1.08136 5 3 ack 40 ------- 0 5.0 0.0 7 22
- 1.08136 5 3 ack 40 ------- 0 5.0 0.0 7 22
r 1.08152 0 2 tcp 1040 ------- 0 0.0 5.0 10 16
+ 1.08152 2 3 tcp 1040 ------- 0 0.0 5.0 10 16
- 1.08152 2 3 tcp 1040 ------- 0 0.0 5.0 10 16
r 1.08352 2 3 tcp 1040 ------- 0 0.0 5.0 9 15
+ 1.08352 3 5 tcp 1040 ------- 0 0.0 5.0 9 15
- 1.08352 3 5 tcp 1040 ------- 0 0.0 5.0 9 15
r 1.08352 5 3 ack 40 ------- 0 5.0 0.0 7 22
+ 1.08352 3 2 ack 40 ------- 0 5.0 0.0 7 22
- 1.08352 3 2 ack 40 ------- 0 5.0 0.0 7 22
- 1.08368 0 2 tcp 1040 ------- 0 0.0 5.0 12 19
r 1.08552 3 5 tcp 1040 ------- 0 0.0 5.0 8 13
+ 1.08552 5 3 ack 40 ------- 0 5.0 0.0 8 23
- 1.08552 5 3 ack 40 ------- 0 5.0 0.0 8 23
r 1.08568 0 2 tcp 1040 ------- 0 0.0 5.0 11 18
+ 1.08568 2 3 tcp 1040 ------- 0 0.0 5.0 11 18
- 1.08568 2 3 tcp 1040 ------- 0 0.0 5.0 11 18
r 1.08568 3 2 ack 40 ------- 0 5.0 0.0 7 22
+ 1.08568 2 0 ack 40 ------- 0 5.0 0.0 7 22
- 1.08568 2 0 ack 40 ------- 0 5.0 0.0 7 22
r 1.08768 2 3 tcp 1040 ------- 0 0.0 5.0 10 16
+ 1.08768 3 5 tcp 1040 ------- 0 0.0 5.0 10 16
- 1.08768 3 5 tcp 1040 ------- 0 0.0 5.0 10 16
r 1.08768 5 3 ack 40 ------- 0 5.0 0.0 8 23
+ 1.08768 3 2 ack 40 ------- 0 5.0 0.0 8 23
- 1.08768 3 2 ack 40 ------- 0 5.0 0.0 8 23
- 1.08784 0 2 tcp 1040 ------- 0 0.0 5.0 13 20
r 1.08784 2 0 ack 40 ------- 0 5.0 0.0 7 22
+ 1.08784 0 2 tcp 1040 ------- 0 0.0 5.0 15 24
+ 1.08784 0 2 tcp 1040 ------- 0 0.0 5.0 16 25
r 1.08968 3 5 tcp 1040 ------- 0 0.0 5.0 9 15
+ 1.08968 5 3 ack 40 ------- 0 5.0 0.0 9 26
- 1.08968 5 3 ack 40 ------- 0 5.0 0.0 9 26
r 1.08984 0 2 tcp 1040 ------- 0 0.0 5.0 12 19
+ 1.08984 2 3 tcp 1040 ------- 0 0.0 5.0 12 19
- 1.08984 2 3 tcp 1040 ------- 0 0.0 5.0 12 19
r 1.08984 3 2 ack 40 ------- 0 5.0 0.0 8 23
+ 1.08984 2 0 ack 40 ------- 0 5.0 0.0 8 23
- 1.08984 2 0 ack 40 ------- 0 5.0 0.0 8 23
r 1.09184 2 3 tcp 1040 ------- 0 0.0 5.0 11 18
+ 1.09184 3 5 tcp 1040 ------- 0 0.0 5.0 11 18
- 1.09184 3 5 tcp 1040 ------- 0 0.0 5.0 11 18
r 1.09184 5 3 ack 40 ------- 0 5.0 0.0 9 26
+ 1.09184 3 2 ack 40 ------- 0 5.0 0.0 9 26
- 1.09184 3 2 ack 40 ------- 0 5.0 0.0 9 26
- 1.092 0 2 tcp 1040 ------- 0 0.0 5.0 14 21
r 1.092 2 0 ack 40 ------- 0 5.0 0.0 8 23
+ 1.092 0 2 tcp 1040 ------- 0 0.0 5.0 17 27
+ 1.092 0 2 tcp 1040 ------- 0 0.0 5.0 18 28
r 1.09384 3 5 tcp 1040 ------- 0 0.0 5.0 10 16
+ 1.09384 5 3 ack 40 ------- 0 5.0 0.0 10 29
- 1.09384 5 3 ack 40 ------- 0 5.0 0.0 10 29
r 1.094 0 2 tcp 1040 ------- 0 0.0 5.0 13 20
+ 1.094 2 3 tcp 1040 ------- 0 0.0 5.0 13 20
- 1.094 2 3 tcp 1040 ------- 0 0.0 5.0 13 20
r 1.094 3 2 ack 40 ------- 0 5.0 0.0 9 26
+ 1.094 2 0 ack 40 ------- 0 5.0 0.0 9 26
- 1.094 2 0 ack 40 ------- 0 5.0 0.0 9 26
r 1.096 2 3 tcp 1040 ------- 0 0.0 5.0 12 19
+ 1.096 3 5 tcp 1040 ------- 0 0.0 5.0 12 19
- 1.096 3 5 tcp 1040 ------- 0 0.0 5.0 12 19
r 1.096 5 3 ack 40 ------- 0 5.0 0.0 10 29
+ 1.096 3 2 ack 40 ------- 0 5.0 0.0 10 29
- 1.096 3 2 ack 40 ------- 0 5.0 0.0 10 29
- 1.09616 0 2 tcp 1040 ------- 0 0.0 5.0 15 24
r 1.09616 2 0 ack 40 ------- 0 5.0 0.0 9 26
+ 1.09616 0 2 tcp 1040 ------- 0 0.0 5.0 19 30
+ 1.09616 0 2 tcp 1040 ------- 0 0.0 5.0 20 31
r 1.098 3 5 tcp 1040 ------- 0 0.0 5.0 11 18
+ 1.098 5 3 ack 40 ------- 0 5.0 0.0 11 32
- 1.098 5 3 ack 40 ------- 0 5.0 0.0 11 32
r 1.09816 0 2 tcp 1040 ------- 0 0.0 5.0 14 21
+ 1.09816 2 3 tcp 1040 ------- 0 0.0 5.0 14 21
- 1.09816 2 3 tcp 1040 ------- 0 0.0 5.0 14 21
r 1.09816 3 2 ack 40 ------- 0 5.0 0.0 10 29
+ 1.09816 2 0 ack 40 ------- 0 5.0 0.0 10 29
- 1.09816 2 0 ack 40 ------- 0 5.0 0.0 10 29
r 1.10016 2 3 tcp 1040 ------- 0 0.0 5.0 13 20
+ 1.10016 3 5 tcp 1040 ------- 0 0.0 5.0 13 20
- 1.10016 3 5 tcp 1040 ------- 0 0.0 5.0 13 20
r 1.10016 5 3 ack 40 ------- 0 5.0 0.0 11 32
+ 1.10016 3 2 ack 40 ------- 0 5.0 0.0 11 32
- 1.10016 3 2 ack 40 ------- 0 5.0 0.0 11 32
- 1.10032 0 2 tcp 1040 ------- 0 0.0 5.0 16 25
r 1.10032 2 0 ack 40 ------- 0 5.0 0.0 10 29
+ 1.10032 0 2 tcp 1040 ------- 0 0.0 5.0 21 33
+ 1.10032 0 2 tcp 1040 ------- 0 0.0 5.0 22 34
r 1.10216 3 5 tcp 1040 ------- 0 0.0 5.0 12 19
+ 1.10216 5 3 ack 40 ------- 0 5.0 0.0 12 35
- 1.10216 5 3 ack 40 ------- 0 5.0 0.0 12 35
r 1.10232 0 2 tcp 1040 ------- 0 0.0 5.0 15 24
+ 1.10232 2 3 tcp 1040 ------- 0 0.0 5.0 15 24
- 1.10232 2 3 tcp 1040 ------- 0 0.0 5.0 15 24
r 1.10232 3 2 ack 40 ------- 0 5.0 0.0 11 32
+ 1.10232 2 0 ack 40 ------- 0 5.0 0.0 11 32
- 1.10232 2 0 ack 40 ------- 0 5.0 0.0 11 32
r 1.10432 2 3 tcp 1040 ------- 0 0.0 5.0 14 21
+ 1.10432 3 5 tcp 1040 ------- 0 0.0 5.0 14 21
- 1.10432 3 5 tcp 1040 ------- 0 0.0 5.0 14 21
r 1.10432 5 3 ack 40 ------- 0 5.0 0.0 12 35
+ 1.10432 3 2 ack 40 ------- 0 5.0 0.0 12 35
- 1.10432 3 2 ack 40 ------- 0 5.0 0.0 12 35
- 1.10448 0 2 tcp 1040 ------- 0 0.0 5.0 17 27
r 1.10448 2 0 ack 40 ------- 0 5.0 0.0 11 32
+ 1.10448 0 2 tcp 1040 ------- 0 0.0 5.0 23 36
+ 1.10448 0 2 tcp 1040 ------- 0 0.0 5.0 24 37
r 1.10632 3 5 tcp 1040 ------- 0 0.0 5.0 13 20
+ 1.10632 5 3 ack 40 ------- 0 5.0 0.0 13 38
- 1.10632 5 3 ack 40 ------- 0 5.0 0.0 13 38
r 1.10648 0 2 tcp 1040 ------- 0 0.0 5.0 16 25
+ 1.10648 2 3 tcp 1040 ------- 0 0.0 5.0 16 25
- 1.10648 2 3 tcp 1040 ------- 0 0.0 5.0 16 25
r 1.10648 3 2 ack 40 ------- 0 5.0 0.0 12 35
+ 1.10648 2 0 ack 40 ------- 0 5.0 0.0 12 35
- 1.10648 2 0 ack 40 ------- 0 5.0 0.0 12 35
r 1.10848 2 3 tcp 1040 ------- 0 0.0 5.0 15 24
+ 1.10848 3 5 tcp 1040 ------- 0 0.0 5.0 15 24
- 1.10848 3 5 tcp 1040 ------- 0 0.0 5.0 15 24
r 1.10848 5 3 ack 40 ------- 0 5.0 0.0 13 38
+ 1.10848 3 2 ack 40 ------- 0 5.0 0.0 13 38
- 1.10848 3 2 ack 40 ------- 0 5.0 0.0 13 38
- 1.10864 0 2 tcp 1040 ------- 0 0.0 5.0 18 28
r 1.10864 2 0 ack 40 ------- 0 5.0 0.0 12 35
+ 1.10864 0 2 tcp 1040 ------- 0 0.0 5.0 25 39
+ 1.10864 0 2 tcp 1040 ------- 0 0.0 5.0 26 40
r 1.11048 3 5 tcp 1040 ------- 0 0.0 5.0 14 21
+ 1.11048 5 3 ack 40 ------- 0 5.0 0.0 14 41
- 1.11048 5 3 ack 40 ------- 0 5.0 0.0 14 41
r 1.11064 0 2 tcp 1040 ------- 0 0.0 5.0 17 27
+ 1.11064 2 3 tcp 1040 ------- 0 0.0 5.0 17 27
- 1.11064 2 3 tcp 1040 ------- 0 0.0 5.0 17 27
r 1.11064 3 2 ack 40 ------- 0 5.0 0.0 13 38
+ 1.11064 2 0 ack 40 ------- 0 5.0 0.0 13 38
- 1.11064 2 0 ack 40 ------- 0 5.0 0.0 13 38
r 1.11264 2 3 tcp 1040 ------- 0 0.0 5.0 16 25
+ 1.11264 3 5 tcp 1040 ------- 0 0.0 5.0 16 25
- 1.11264 3 5 tcp 1040 ------- 0 0.0 5.0 16 25
r 1.11264 5 3 ack 40 ------- 0 5.0 0.0 14 41
+ 1.11264 3 2 ack 40 ------- 0 5.0 0.0 14 41
- 1.11264 3 2 ack 40 ------- 0 5.0 0.0 14 41
- 1.1128 0 2 tcp 1040 ------- 0 0.0 5.0 19 30
r 1.1128 2 0 ack 40 ------- 0 5.0 0.0 13 38
+ 1.1128 0 2 tcp 1040 ------- 0 0.0 5.0 27 42
+ 1.1128 0 2 tcp 1040 ------- 0 0.0 5.0 28 43
r 1.11464 3 5 tcp 1040 ------- 0 0.0 5.0 15 24
+ 1.11464 5 3 ack 40 ------- 0 5.0 0.0 15 44
- 1.11464 5 3 ack 40 ------- 0 5.0 0.0 15 44
r 1.1148 0 2 tcp 1040 ------- 0 0.0 5.0 18 28
+ 1.1148 2 3 tcp 1040 ------- 0 0.0 5.0 18 28
- 1.1148 2 3 tcp 1040 ------- 0 0.0 5.0 18 28
r 1.1148 3 2 ack 40 ------- 0 5.0 0.0 14 41
+ 1.1148 2 0 ack 40 ------- 0 5.0 0.0 14 41
- 1.1148 2 0 ack 40 ------- 0 5.0 0.0 14 41
r 1.1168 2 3 tcp 1040 ------- 0 0.0 5.0 17 27
+ 1.1168 3 5 tcp 1040 ------- 0 0.0 5.0 17 27
- 1.1168 3 5 tcp 1040 ------- 0 0.0 5.0 17 27
r 1.1168 5 3 ack 40 ------- 0 5.0 0.0 15 44
+ 1.1168 3 2 ack 40 ------- 0 5.0 0.0 15 44
- 1.1168 3 2 ack 40 ------- 0 5.0 0.0 15 44
- 1.11696 0 2 tcp 1040 ------- 0 0.0 5.0 20 31
r 1.11696 2 0 ack 40 ------- 0 5.0 0.0 14 41
+ 1.11696 0 2 tcp 1040 ------- 0 0.0 5.0 29 45
+ 1.11696 0 2 tcp 1040 ------- 0 0.0 5.0 30 46
r 1.1188 3 5 tcp 1040 ------- 0 0.0 5.0 16 25
+ 1.1188 5 3 ack 40 ------- 0 5.0 0.0 16 47
- 1.1188 5 3 ack 40 ------- 0 5.0 0.0 16 47
r 1.11896 0 2 tcp 1040 ------- 0 0.0 5.0 19 30
+ 1.11896 2 3 tcp 1040 ------- 0 0.0 5.0 19 30
- 1.11896 2 3 tcp 1040 ------- 0 0.0 5.0 19 30
r 1.11896 3 2 ack 40 ------- 0 5.0 0.0 15 44
+ 1.11896 2 0 ack 40 ------- 0 5.0 0.0 15 44
- 1.11896 2 0 ack 40 ------- 0 5.0 0.0 15 44
r 1.12096 2 3 tcp 1040 ------- 0 0.0 5.0 18 28
+ 1.12096 3 5 tcp 1040 ------- 0 0.0 5.0 18 28
- 1.12096 3 5 tcp 1040 ------- 0 0.0 5.0 18 28
r 1.12096 5 3 ack 40 ------- 0 5.0 0.0 16 47
+ 1.12096 3 2 ack 40 ------- 0 5.0 0.0 16 47
- 1.12096 3 2 ack 40 ------- 0 5.0 0.0 16 47
- 1.12112 0 2 tcp 1040 ------- 0 0.0 5.0 21 33
r 1.12112 2 0 ack 40 ------- 0 5.0 0.0 15 44
+ 1.12112 0 2 tcp 1040 ------- 0 0.0 5.0 31 48
+ 1.12112 0 2 tcp 1040 ------- 0 0.0 5.0 32 49
r 1.12296 3 5 tcp 1040 ------- 0 0.0 5.0 17 27
+ 1.12296 5 3 ack 40 ------- 0 5.0 0.0 17 50
- 1.12296 5 3 ack 40 ------- 0 5.0 0.0 17 50
r 1.12312 0 2 tcp 1040 ------- 0 0.0 5.0 20 31
+ 1.12312 2 3 tcp 1040 ------- 0 0.0 5.0 20 31
- 1.12312 2 3 tcp 1040 ------- 0 0.0 5.0 20 31
r 1.12312 3 2 ack 40 ------- 0 5.0 0.0 16 47
+ 1.12312 2 0 ack 40 ------- 0 5.0 0.0 16 47
- 1.12312 2 0 ack 40 ------- 0 5.0 0.0 16 47
r 1.12512 2 3 tcp 1040 ------- 0 0.0 5.0 19 30
+ 1.12512 3 5 tcp 1040 ------- 0 0.0 5.0 19 30
- 1.12512 3 5 tcp 1040 ------- 0 0.0 5.0 19 30
r 1.12512 5 3 ack 40 ------- 0 5.0 0.0 17 50
+ 1.12512 3 2 ack 40 ------- 0 5.0 0.0 17 50
- 1.12512 3 2 ack 40 ------- 0 5.0 0.0 17 50
- 1.12528 0 2 tcp 1040 ------- 0 0.0 5.0 22 34
r 1.12528 2 0 ack 40 ------- 0 5.0 0.0 16 47
+ 1.12528 0 2 tcp 1040 ------- 0 0.0 5.0 33 51
+ 1.12528 0 2 tcp 1040 ------- 0 0.0 5.0 34 52
r 1.12712 3 5 tcp 1040 ------- 0 0.0 5.0 18 28
+ 1.12712 5 3 ack 40 ------- 0 5.0 0.0 18 53
- 1.12712 5 3 ack 40 ------- 0 5.0 0.0 18 53
r 1.12728 0 2 tcp 1040 ------- 0 0.0 5.0 21 33
+ 1.12728 2 3 tcp 1040 ------- 0 0.0 5.0 21 33
- 1.12728 2 3 tcp 1040 ------- 0 0.0 5.0 21 33
r 1.12728 3 2 ack 40 ------- 0 5.0 0.0 17 50
+ 1.12728 2 0 ack 40 ------- 0 5.0 0.0 17 50
- 1.12728 2 0 ack 40 ------- 0 5.0 0.0 17 50
r 1.12928 2 3 tcp 1040 ------- 0 0.0 5.0 20 31
+ 1.12928 3 5 tcp 1040 ------- 0 0.0 5.0 20 31
- 1.12928 3 5 tcp 1040 ------- 0 0.0 5.0 20 31
r 1.12928 5 3 ack 40 ------- 0 5.0 0.0 18 53
+ 1.12928 3 2 ack 40 ------- 0 5.0 0.0 18 53
- 1.12928 3 2 ack 40 ------- 0 5.0 0.0 18 53
- 1.12944 0 2 tcp 1040 ------- 0 0.0 5.0 23 36
r 1.12944 2 0 ack 40 ------- 0 5.0 0.0 17 50
+ 1.12944 0 2 tcp 1040 ------- 0 0.0 5.0 35 54
+ 1.12944 0 2 tcp 1040 ------- 0 0.0 5.0 36 55
r 1.13128 3 5 tcp 1040 ------- 0 0.0 5.0 19 30
+ 1.13128 5 3 ack 40 ------- 0 5.0 0.0 19 56
- 1.13128 5 3 ack 40 ------- 0 5.0 0.0 19 56
r 1.13144 0 2 tcp 1040 ------- 0 0.0 5.0 22 34
+ 1.13144 2 3 tcp 1040 ------- 0 0.0 5.0 22 34
- 1.13144 2 3 tcp 1040 ------- 0 0.0 5.0 22 34
r 1.13144 3 2 ack 40 ------- 0 5.0 0.0 18 53
+ 1.13144 2 0 ack 40 ------- 0 5.0 0.0 18 53
- 1.13144 2 0 ack 40 ------- 0 5.0 0.0 18 53
r 1.13344 2 3 tcp 1040 ------- 0 0.0 5.0 21 33
+ 1.13344 3 5 tcp 1040 ------- 0 0.0 5.0 21 33
- 1.13344 3 5 tcp 1040 ------- 0 0.0 5.0 21 33
r 1.13344 5 3 ack 40 ------- 0 5.0 0.0 19 56
+ 1.13344 3 2 ack 40 ------- 0 5.0 0.0 19 56
- 1.13344 3 2 ack 40 ------- 0 5.0 0.0 19 56
- 1.1336 0 2 tcp 1040 ------- 0 0.0 5.0 24 37
r 1.1336 2 0 ack 40 ------- 0 5.0 0.0 18 53
+ 1.1336 0 2 tcp 1040 ------- 0 0.0 5.0 37 57
+ 1.1336 0 2 tcp 1040 ------- 0 0.0 5.0 38 58
r 1.13544 3 5 tcp 1040 ------- 0 0.0 5.0 20 31
+ 1.13544 5 3 ack 40 ------- 0 5.0 0.0 20 59
- 1.13544 5 3 ack 40 ------- 0 5.0 0.0 20 59
r 1.1356 0 2 tcp 1040 ------- 0 0.0 5.0 23 36
+ 1.1356 2 3 tcp 1040 ------- 0 0.0 5.0 23 36
- 1.1356 2 3 tcp 1040 ------- 0 0.0 5.0 23 36
r 1.1356 3 2 ack 40 ------- 0 5.0 0.0 19 56
+ 1.1356 2 0 ack 40 ------- 0 5.0 0.0 19 56
- 1.1356 2 0 ack 40 ------- 0 5.0 0.0 19 56
r 1.1376 2 3 tcp 1040 ------- 0 0.0 5.0 22 34
+ 1.1376 3 5 tcp 1040 ------- 0 0.0 5.0 22 34
- 1.1376 3 5 tcp 1040 ------- 0 0.0 5.0 22 34
r 1.1376 5 3 ack 40 ------- 0 5.0 0.0 20 59
+ 1.1376 3 2 ack 40 ------- 0 5.0 0.0 20 59
- 1.1376 3 2 ack 40 ------- 0 5.0 0.0 20 59
- 1.13776 0 2 tcp 1040 ------- 0 0.0 5.0 25 39
r 1.13776 2 0 ack 40 ------- 0 5.0 0.0 19 56
+ 1.13776 0 2 tcp 1040 ------- 0 0.0 5.0 39 60
r 1.1396 3 5 tcp 1040 ------- 0 0.0 5.0 21 33
+ 1.1396 5 3 ack 40 ------- 0 5.0 0.0 21 61
- 1.1396 5 3 ack 40 ------- 0 5.0 0.0 21 61
r 1.13976 0 2 tcp 1040 ------- 0 0.0 5.0 24 37
+ 1.13976 2 3 tcp 1040 ------- 0 0.0 5.0 24 37
- 1.13976 2 3 tcp 1040 ------- 0 0.0 5.0 24 37
r 1.13976 3 2 ack 40 ------- 0 5.0 0.0 20 59
+ 1.13976 2 0 ack 40 ------- 0 5.0 0.0 20 59
- 1.13976 2 0 ack 40 ------- 0 5.0 0.0 20 59
r 1.14176 2 3 tcp 1040 ------- 0 0.0 5.0 23 36
+ 1.14176 3 5 tcp 1040 ------- 0 0.0 5.0 23 36
- 1.14176 3 5 tcp 1040 ------- 0 0.0 5.0 23 36
r 1.14176 5 3 ack 40 ------- 0 5.0 0.0 21 61
+ 1.14176 3 2 ack 40 ------- 0 5.0 0.0 21 61
- 1.14176 3 2 ack 40 ------- 0 5.0 0.0 21 61
- 1.14192 0 2 tcp 1040 ------- 0 0.0 5.0 26 40
r 1.14192 2 0 ack 40 ------- 0 5.0 0.0 20 59
+ 1.14192 0 2 tcp 1040 ------- 0 0.0 5.0 40 62
r 1.14376 3 5 tcp 1040 ------- 0 0.0 5.0 22 34
+ 1.14376 5 3 ack 40 ------- 0 5.0 0.0 22 63
- 1.14376 5 3 ack 40 ------- 0 5.0 0.0 22 63
r 1.14392 0 2 tcp 1040 ------- 0 0.0 5.0 25 39
+ 1.14392 2 3 tcp 1040 ------- 0 0.0 5.0 25 39
- 1.14392 2 3 tcp 1040 ------- 0 0.0 5.0 25 39
r 1.14392 3 2 ack 40 ------- 0 5.0 0.0 21 61
+ 1.14392 2 0 ack 40 ------- 0 5.0 0.0 21 61
- 1.14392 2 0 ack 40 ------- 0 5.0 0.0 21 61
r 1.14592 2 3 tcp 1040 ------- 0 0.0 5.0 24 37
+ 1.14592 3 5 tcp 1040 ------- 0 0.0 5.0 24 37
- 1.14592 3 5 tcp 1040 ------- 0 0.0 5.0 24 37
r 1.14592 5 3 ack 40 ------- 0 5.0 0.0 22 63
+ 1.14592 3 2 ack 40 ------- 0 5.0 0.0 22 63
- 1.14592 3 2 ack 40 ------- 0 5.0 0.0 22 63
- 1.14608 0 2 tcp 1040 ------- 0 0.0 5.0 27 42
r 1.14608 2 0 ack 40 ------- 0 5.0 0.0 21 61
+ 1.14608 0 2 tcp 1040 ------- 0 0.0 5.0 41 64
r 1.14792 3 5 tcp 1040 ------- 0 0.0 5.0 23 36
+ 1.14792 5 3 ack 40 ------- 0 5.0 0.0 23 65
- 1.14792 5 3 ack 40 ------- 0 5.0 0.0 23 65
r 1.14808 0 2 tcp 1040 ------- 0 0.0 5.0 26 40
+ 1.14808 2 3 tcp 1040 ------- 0 0.0 5.0 26 40
- 1.14808 2 3 tcp 1040 ------- 0 0.0 5.0 26 40
r 1.14808 3 2 ack 40 ------- 0 5.0 0.0 22 63
+ 1.14808 2 0 ack 40 ------- 0 5.0 0.0 22 63
- 1.14808 2 0 ack 40 ------- 0 5.0 0.0 22 63
r 1.15008 2 3 tcp 1040 ------- 0 0.0 5.0 25 39
+ 1.15008 3 5 tcp 1040 ------- 0 0.0 5.0 25 39
- 1.15008 3 5 tcp 1040 ------- 0 0.0 5.0 25 39
r 1.15008 5 3 ack 40 ------- 0 5.0 0.0 23 65
+ 1.15008 3 2 ack 40 ------- 0 5.0 0.0 23 65
- 1.15008 3 2 ack 40 ------- 0 5.0 0.0 23 65
- 1.15024 0 2 tcp 1040 ------- 0 0.0 5.0 28 43
r 1.15024 2 0 ack 40 ------- 0 5.0 0.0 22 63
+ 1.15024 0 2 tcp 1040 ------- 0 0.0 5.0 42 66
r 1.15208 3 5 tcp 1040 ------- 0 0.0 5.0 24 37
+ 1.15208 5 3 ack 40 ------- 0 5.0 0.0 24 67
- 1.15208 5 3 ack 40 ------- 0 5.0 0.0 24 67
r 1.15224 0 2 tcp 1040 ------- 0 0.0 5.0 27 42
+ 1.15224 2 3 tcp 1040 ------- 0 0.0 5.0 27 42
- 1.15224 2 3 tcp 1040 ------- 0 0.0 5.0 27 42
r 1.15224 3 2 ack 40 ------- 0 5.0 0.0 23 65
+ 1.15224 2 0 ack 40 ------- 0 5.0 0.0 23 65
- 1.15224 2 0 ack 40 ------- 0 5.0 0.0 23 65
r 1.15424 2 3 tcp 1040 ------- 0 0.0 5.0 26 40
+ 1.15424 3 5 tcp 1040 ------- 0 0.0 5.0 26 40
- 1.15424 3 5 tcp 1040 ------- 0 0.0 5.0 26 40
r 1.15424 5 3 ack 40 ------- 0 5.0 0.0 24 67
+ 1.15424 3 2 ack 40 ------- 0 5.0 0.0 24 67
- 1.15424 3 2 ack 40 ------- 0 5.0 0.0 24 67
- 1.1544 0 2 tcp 1040 ------- 0 0.0 5.0 29 45
r 1.1544 2 0 ack 40 ------- 0 5.0 0.0 23 65
+ 1.1544 0 2 tcp 1040 ------- 0 0.0 5.0 43 68
r 1.15624 3 5 tcp 1040 ------- 0 0.0 5.0 25 39
+ 1.15624 5 3 ack 40 ------- 0 5.0 0.0 25 69
- 1.15624 5 3 ack 40 ------- 0 5.0 0.0 25 69
r 1.1564 0 2 tcp 1040 ------- 0 0.0 5.0 28 43
+ 1.1564 2 3 tcp 1040 ------- 0 0.0 5.0 28 43
- 1.1564 2 3 tcp 1040 ------- 0 0.0 5.0 28 43
r 1.1564 3 2 ack 40 ------- 0 5.0 0.0 24 67
+ 1.1564 2 0 ack 40 ------- 0 5.0 0.0 24 67
- 1.1564 2 0 ack 40 ------- 0 5.0 0.0 24 67
r 1.1584 2 3 tcp 1040 ------- 0 0.0 5.0 27 42
+ 1.1584 3 5 tcp 1040 ------- 0 0.0 5.0 27 42
- 1.1584 3 5 tcp 1040 ------- 0 0.0 5.0 27 42
r 1.1584 5 3 ack 40 ------- 0 5.0 0.0 25 69
+ 1.1584 3 2 ack 40 ------- 0 5.0 0.0 25 69
- 1.1584 3 2 ack 40 ------- 0 5.0 0.0 25 69
- 1.15856 0 2 tcp 1040 ------- 0 0.0 5.0 30 46
r 1.15856 2 0 ack 40 ------- 0 5.0 0.0 24 67
+ 1.15856 0 2 tcp 1040 ------- 0 0.0 5.0 44 70
r 1.1604 3 5 tcp 1040 ------- 0 0.0 5.0 26 40
+ 1.1604 5 3 ack 40 ------- 0 5.0 0.0 26 71
- 1.1604 5 3 ack 40 ------- 0 5.0 0.0 26 71
r 1.16056 0 2 tcp 1040 ------- 0 0.0 5.0 29 45
+ 1.16056 2 3 tcp 1040 ------- 0 0.0 5.0 29 45
- 1.16056 2 3 tcp 1040 ------- 0 0.0 5.0 29 45
r 1.16056 3 2 ack 40 ------- 0 5.0 0.0 25 69
+ 1.16056 2 0 ack 40 ------- 0 5.0 0.0 25 69
- 1.16056 2 0 ack 40 ------- 0 5.0 0.0 25 69
r 1.16256 2 3 tcp 1040 ------- 0 0.0 5.0 28 43
+ 1.16256 3 5 tcp 1040 ------- 0 0.0 5.0 28 43
- 1.16256 3 5 tcp 1040 ------- 0 0.0 5.0 28 43
r 1.16256 5 3 ack 40 ------- 0 5.0 0.0 26 71
+ 1.16256 3 2 ack 40 ------- 0 5.0 0.0 26 71
- 1.16256 3 2 ack 40 ------- 0 5.0 0.0 26 71
- 1.16272 0 2 tcp 1040 ------- 0 0.0 5.0 31 48
r 1.16272 2 0 ack 40 ------- 0 5.0 0.0 25 69
+ 1.16272 0 2 tcp 1040 ------- 0 0.0 5.0 45 72
r 1.16456 3 5 tcp 1040 ------- 0 0.0 5.0 27 42
+ 1.16456 5 3 ack 40 ------- 0 5.0 0.0 27 73
- 1.16456 5 3 ack 40 ------- 0 5.0 0.0 27 73
r 1.16472 0 2 tcp 1040 ------- 0 0.0 5.0 30 46
+ 1.16472 2 3 tcp 1040 ------- 0 0.0 5.0 30 46
- 1.16472 2 3 tcp 1040 ------- 0 0.0 5.0 30 46
r 1.16472 3 2 ack 40 ------- 0 5.0 0.0 26 71
+ 1.16472 2 0 ack 40 ------- 0 5.0 0.0 26 71
- 1.16472 2 0 ack 40 ------- 0 5.0 0.0 26 71
r 1.16672 2 3 tcp 1040 ------- 0 0.0 5.0 29 45
+ 1.16672 3 5 tcp 1040 ------- 0 0.0 5.0 29 45
- 1.16672 3 5 tcp 1040 ------- 0 0.0 5.0 29 45
r 1.16672 5 3 ack 40 ------- 0 5.0 0.0 27 73
+ 1.16672 3 2 ack 40 ------- 0 5.0 0.0 27 73
- 1.16672 3 2 ack 40 ------- 0 5.0 0.0 27 73
- 1.16688 0 2 tcp 1040 ------- 0 0.0 5.0 32 49
r 1.16688 2 0 ack 40 ------- 0 5.0 0.0 26 71
+ 1.16688 0 2 tcp 1040 ------- 0 0.0 5.0 46 74
r 1.16872 3 5 tcp 1040 ------- 0 0.0 5.0 28 43
+ 1.16872 5 3 ack 40 ------- 0 5.0 0.0 28 75
- 1.16872 5 3 ack 40 ------- 0 5.0 0.0 28 75
r 1.16888 0 2 tcp 1040 ------- 0 0.0 5.0 31 48
+ 1.16888 2 3 tcp 1040 ------- 0 0.0 5.0 31 48
- 1.16888 2 3 tcp 1040 ------- 0 0.0 5.0 31 48
r 1.16888 3 2 ack 40 ------- 0 5.0 0.0 27 73
+ 1.16888 2 0 ack 40 ------- 0 5.0 0.0 27 73
- 1.16888 2 0 ack 40 ------- 0 5.0 0.0 27 73
r 1.17088 2 3 tcp 1040 ------- 0 0.0 5.0 30 46
+ 1.17088 3 5 tcp 1040 ------- 0 0.0 5.0 30 46
- 1.17088 3 5 tcp 1040 ------- 0 0.0 5.0 30 46
r 1.17088 5 3 ack 40 ------- 0 5.0 0.0 28 75
+ 1.17088 3 2 ack 40 ------- 0 5.0 0.0 28 75
- 1.17088 3 2 ack 40 ------- 0 5.0 0.0 28 75
- 1.17104 0 2 tcp 1040 ------- 0 0.0 5.0 33 51
r 1.17104 2 0 ack 40 ------- 0 5.0 0.0 27 73
+ 1.17104 0 2 tcp 1040 ------- 0 0.0 5.0 47 76
r 1.17288 3 5 tcp 1040 ------- 0 0.0 5.0 29 45
+ 1.17288 5 3 ack 40 ------- 0 5.0 0.0 29 77
- 1.17288 5 3 ack 40 ------- 0 5.0 0.0 29 77
r 1.17304 0 2 tcp 1040 ------- 0 0.0 5.0 32 49
+ 1.17304 2 3 tcp 1040 ------- 0 0.0 5.0 32 49
- 1.17304 2 3 tcp 1040 ------- 0 0.0 5.0 32 49
r 1.17304 3 2 ack 40 ------- 0 5.0 0.0 28 75
+ 1.17304 2 0 ack 40 ------- 0 5.0 0.0 28 75
- 1.17304 2 0 ack 40 ------- 0 5.0 0.0 28 75
r 1.17504 2 3 tcp 1040 ------- 0 0.0 5.0 31 48
+ 1.17504 3 5 tcp 1040 ------- 0 0.0 5.0 31 48
- 1.17504 3 5 tcp 1040 ------- 0 0.0 5.0 31 48
r 1.17504 5 3 ack 40 ------- 0 5.0 0.0 29 77
+ 1.17504 3 2 ack 40 ------- 0 5.0 0.0 29 77
- 1.17504 3 2 ack 40 ------- 0 5.0 0.0 29 77
- 1.1752 0 2 tcp 1040 ------- 0 0.0 5.0 34 52
r 1.1752 2 0 ack 40 ------- 0 5.0 0.0 28 75
+ 1.1752 0 2 tcp 1040 ------- 0 0.0 5.0 48 78
r 1.17704 3 5 tcp 1040 ------- 0 0.0 5.0 30 46
+ 1.17704 5 3 ack 40 ------- 0 5.0 0.0 30 79
- 1.17704 5 3 ack 40 ------- 0 5.0 0.0 30 79
r 1.1772 0 2 tcp 1040 ------- 0 0.0 5.0 33 51
+ 1.1772 2 3 tcp 1040 ------- 0 0.0 5.0 33 51
- 1.1772 2 3 tcp 1040 ------- 0 0.0 5.0 33 51
r 1.1772 3 2 ack 40 ------- 0 5.0 0.0 29 77
+ 1.1772 2 0 ack 40 ------- 0 5.0 0.0 29 77
- 1.1772 2 0 ack 40 ------- 0 5.0 0.0 29 77
r 1.1792 2 3 tcp 1040 ------- 0 0.0 5.0 32 49
+ 1.1792 3 5 tcp 1040 ------- 0 0.0 5.0 32 49
- 1.1792 3 5 tcp 1040 ------- 0 0.0 5.0 32 49
r 1.1792 5 3 ack 40 ------- 0 5.0 0.0 30 79
+ 1.1792 3 2 ack 40 ------- 0 5.0 0.0 30 79
- 1.1792 3 2 ack 40 ------- 0 5.0 0.0 30 79
- 1.17936 0 2 tcp 1040 ------- 0 0.0 5.0 35 54
r 1.17936 2 0 ack 40 ------- 0 5.0 0.0 29 77
+ 1.17936 0 2 tcp 1040 ------- 0 0.0 5.0 49 80
r 1.1812 3 5 tcp 1040 ------- 0 0.0 5.0 31 48
+ 1.1812 5 3 ack 40 ------- 0 5.0 0.0 31 81
- 1.1812 5 3 ack 40 ------- 0 5.0 0.0 31 81
r 1.18136 0 2 tcp 1040 ------- 0 0.0 5.0 34 52
+ 1.18136 2 3 tcp 1040 ------- 0 0.0 5.0 34 52
- 1.18136 2 3 tcp 1040 ------- 0 0.0 5.0 34 52
r 1.18136 3 2 ack 40 ------- 0 5.0 0.0 30 79
+ 1.18136 2 0 ack 40 ------- 0 5.0 0.0 30 79
- 1.18136 2 0 ack 40 ------- 0 5.0 0.0 30 79
r 1.18336 2 3 tcp 1040 ------- 0 0.0 5.0 33 51
+ 1.18336 3 5 tcp 1040 ------- 0 0.0 5.0 33 51
- 1.18336 3 5 tcp 1040 ------- 0 0.0 5.0 33 51
r 1.18336 5 3 ack 40 ------- 0 5.0 0.0 31 81
+ 1.18336 3 2 ack 40 ------- 0 5.0 0.0 31 81
- 1.18336 3 2 ack 40 ------- 0 5.0 0.0 31 81
- 1.18352 0 2 tcp 1040 ------- 0 0.0 5.0 36 55
r 1.18352 2 0 ack 40 ------- 0 5.0 0.0 30 79
+ 1.18352 0 2 tcp 1040 ------- 0 0.0 5.0 50 82
r 1.18536 3 5 tcp 1040 ------- 0 0.0 5.0 32 49
+ 1.18536 5 3 ack 40 ------- 0 5.0 0.0 32 83
- 1.18536 5 3 ack 40 ------- 0 5.0 0.0 32 83
r 1.18552 0 2 tcp 1040 ------- 0 0.0 5.0 35 54
+ 1.18552 2 3 tcp 1040 ------- 0 0.0 5.0 35 54
- 1.18552 2 3 tcp 1040 ------- 0 0.0 5.0 35 54
r 1.18552 3 2 ack 40 ------- 0 5.0 0.0 31 81
+ 1.18552 2 0 ack 40 ------- 0 5.0 0.0 31 81
- 1.18552 2 0 ack 40 ------- 0 5.0 0.0 31 81
r 1.18752 2 3 tcp 1040 ------- 0 0.0 5.0 34 52
+ 1.18752 3 5 tcp 1040 ------- 0 0.0 5.0 34 52
- 1.18752 3 5 tcp 1040 ------- 0 0.0 5.0 34 52
r 1.18752 5 3 ack 40 ------- 0 5.0 0.0 32 83
+ 1.18752 3 2 ack 40 ------- 0 5.0 0.0 32 83
- 1.18752 3 2 ack 40 ------- 0 5.0 0.0 32 83
- 1.18768 0 2 tcp 1040 ------- 0 0.0 5.0 37 57
r 1.18768 2 0 ack 40 ------- 0 5.0 0.0 31 81
+ 1.18768 0 2 tcp 1040 ------- 0 0.0 5.0 51 84
r 1.18952 3 5 tcp 1040 ------- 0 0.0 5.0 33 51
+ 1.18952 5 3 ack 40 ------- 0 5.0 0.0 33 85
- 1.18952 5 3 ack 40 ------- 0 5.0 0.0 33 85
r 1.18968 0 2 tcp 1040 ------- 0 0.0 5.0 36 55
+ 1.18968 2 3 tcp 1040 ------- 0 0.0 5.0 36 55
- 1.18968 2 3 tcp 1040 ------- 0 0.0 5.0 36 55
r 1.18968 3 2 ack 40 ------- 0 5.0 0.0 32 83
+ 1.18968 2 0 ack 40 ------- 0 5.0 0.0 32 83
- 1.18968 2 0 ack 40 ------- 0 5.0 0.0 32 83
r 1.19168 2 3 tcp 1040 ------- 0 0.0 5.0 35 54
+ 1.19168 3 5 tcp 1040 ------- 0 0.0 5.0 35 54
- 1.19168 3 5 tcp 1040 ------- 0 0.0 5.0 35 54
r 1.19168 5 3 ack 40 ------- 0 5.0 0.0 33 85
+ 1.19168 3 2 ack 40 ------- 0 5.0 0.0 33 85
- 1.19168 3 2 ack 40 ------- 0 5.0 0.0 33 85
- 1.19184 0 2 tcp 1040 ------- 0 0.0 5.0 38 58
r 1.19184 2 0 ack 40 ------- 0 5.0 0.0 32 83
+ 1.19184 0 2 tcp 1040 ------- 0 0.0 5.0 52 86
r 1.19368 3 5 tcp 1040 ------- 0 0.0 5.0 34 52
+ 1.19368 5 3 ack 40 ------- 0 5.0 0.0 34 87
- 1.19368 5 3 ack 40 ------- 0 5.0 0.0 34 87
r 1.19384 0 2 tcp 1040 ------- 0 0.0 5.0 37 57
+ 1.19384 2 3 tcp 1040 ------- 0 0.0 5.0 37 57
- 1.19384 2 3 tcp 1040 ------- 0 0.0 5.0 37 57
r 1.19384 3 2 ack 40 ------- 0 5.0 0.0 33 85
+ 1.19384 2 0 ack 40 ------- 0 5.0 0.0 33 85
- 1.19384 2 0 ack 40 ------- 0 5.0 0.0 33 85
r 1.19584 2 3 tcp 1040 ------- 0 0.0 5.0 36 55
+ 1.19584 3 5 tcp 1040 ------- 0 0.0 5.0 36 55
- 1.19584 3 5 tcp 1040 ------- 0 0.0 5.0 36 55
r 1.19584 5 3 ack 40 ------- 0 5.0 0.0 34 87