V -t * -v 1.0a5 -a 0
A -t * -n 1 -p 0 -o 0x7fffffff -c 30 -a 1
A -t * -h 1 -m 1073741823 -s 0
n -t * -a 0 -s 0 -S UP -v circle -c black -i black
n -t * -a 1 -s 1 -S UP -v circle -c black -i black
n -t * -a 2 -s 2 -S UP -v circle -c black -i black
n -t * -a 3 -s 3 -S UP -v circle -c black -i black
l -t * -s 0 -d 2 -S UP -r 2000000 -D 0.002 -c black
l -t * -s 1 -d 2 -S UP -r 2000000 -D 0.002 -c black
l -t * -s 2 -d 3 -S UP -r 2000000 -D 0.002 -c black
+ -t 1 -s 0 -d 2 -p tcp -e 40 -c 0 -i 0 -a 0 -x {0.0 3.0 0 ------- null}
- -t 1 -s 0 -d 2 -p tcp -e 40 -c 0 -i 0 -a 0 -x {0.0 3.0 0 ------- null}
h -t 1 -s 0 -d 2 -p tcp -e 40 -c 0 -i 0 -a 0 -x {0.0 3.0 -1 ------- null}
+ -t 1 -s 1 -d 2 -p cbr -e 210 -c 0 -i 1 -a 0 -x {1.0 3.1 0 ------- null}
- -t 1 -s 1 -d 2 -p cbr -e 210 -c 0 -i 1 -a 0 -x {1.0 3.1 0 ------- null}
h -t 1 -s 1 -d 2 -p cbr -e 210 -c 0 -i 1 -a 0 -x {1.0 3.1 -1 ------- null}
r -t 1.00216 -s 0 -d 2 -p tcp -e 40 -c 0 -i 0 -a 0 -x {0.0 3.0 0 ------- null}
+ -t 1.00216 -s 2 -d 3 -p tcp -e 40 -c 0 -i 0 -a 0 -x {0.0 3.0 0 ------- null}
- -t 1.00216 -s 2 -d 3 -p tcp -e 40 -c 0 -i 0 -a 0 -x {0.0 3.0 0 ------- null}
h -t 1.00216 -s 2 -d 3 -p tcp -e 40 -c 0 -i 0 -a 0 -x {0.0 3.0 -1 ------- null}
r -t 1.00284 -s 1 -d 2 -p cbr -e 210 -c 0 -i 1 -a 0 -x {1.0 3.1 0 ------- null}
+ -t 1.00284 -s 2 -d 3 -p cbr -e 210 -c 0 -i 1 -a 0 -x {1.0 3.1 0 ------- null}
- -t 1.00284 -s 2 -d 3 -p cbr -e 210 -c 0 -i 1 -a 0 -x {1.0 3.1 0 ------- null}
h -t 1.00284 -s 2 -d 3 -p cbr -e 210 -c 0 -i 1 -a 0 -x {1.0 3.1 -1 ------- null}
+ -t 1.00375 -s 1 -d 2 -p cbr -e 210 -c 0 -i 2 -a 0 -x {1.0 3.1 1 ------- null}
- -t 1.00375 -s 1 -d 2 -p cbr -e 210 -c 0 -i 2 -a 0 -x {1.0 3.1 1 ------- null}
h -t 1.00375 -s 1 -d 2 -p cbr -e 210 -c 0 -i 2 -a 0 -x {1.0 3.1 -1 ------- null}
r -t 1.00432 -s 2 -d 3 -p tcp -e 40 -c 0 -i 0 -a 0 -x {0.0 3.0 0 ------- null}
+ -t 1.00432 -s 3 -d 2 -p ack -e 40 -c 0 -i 3 -a 0 -x {3.0 0.0 0 ------- null}
- -t 1.00432 -s 3 -d 2 -p ack -e 40 -c 0 -i 3 -a 0 -x {3.0 0.0 0 ------- null}
h -t 1.00432 -s 3 -d 2 -p ack -e 40 -c 0 -i 3 -a 0 -x {3.0 0.0 -1 ------- null}
r -t 1.00568 -s 2 -d 3 -p cbr -e 210 -c 0 -i 1 -a 0 -x {1.0 3.1 0 ------- null}
r -t 1.00648 -s 3 -d 2 -p ack -e 40 -c 0 -i 3 -a 0 -x {3.0 0.0 0 ------- null}
+ -t 1.00648 -s 2 -d 0 -p ack -e 40 -c 0 -i 3 -a 0 -x {3.0 0.0 0 ------- null}
- -t 1.00648 -s 2 -d 0 -p ack -e 40 -c 0 -i 3 -a 0 -x {3.0 0.0 0 ------- null}
h -t 1.00648 -s 2 -d 0 -p ack -e 40 -c 0 -i 3 -a 0 -x {3.0 0.0 -1 ------- null}
r -t 1.00659 -s 1 -d 2 -p cbr -e 210 -c 0 -i 2 -a 0 -x {1.0 3.1 1 ------- null}
+ -t 1.00659 -s 2 -d 3 -p cbr -e 210 -c 0 -i 2 -a 0 -x {1.0 3.1 1 ------- null}
- -t 1.00659 -s 2 -d 3 -p cbr -e 210 -c 0 -i 2 -a 0 -x {1.0 3.1 1 ------- null}
h -t 1.00659 -s 2 -d 3 -p cbr -e 210 -c 0 -i 2 -a 0 -x {1.0 3.1 -1 ------- null}
+ -t 1.0075 -s 1 -d 2 -p cbr -e 210 -c 0 -i 4 -a 0 -x {1.0 3.1 2 ------- null}
- -t 1.0075 -s 1 -d 2 -p cbr -e 210 -c 0 -i 4 -a 0 -x {1.0 3.1 2 ------- null}
h -t 1.0075 -s 1 -d 2 -p cbr -e 210 -c 0 -i 4 -a 0 -x {1.0 3.1 -1 ------- null}
r -t 1.00864 -s 2 -d 0 -p ack -e 40 -c 0 -i 3 -a 0 -x {3.0 0.0 0 ------- null}
+ -t 1.00864 -s 0 -d 2 -p tcp -e 1040 -c 0 -i 5 -a 0 -x {0.0 3.0 1 ------- null}
- -t 1.00864 -s 0 -d 2 -p tcp -e 1040 -c 0 -i 5 -a 0 -x {0.0 3.0 1 ------- null}
h -t 1.00864 -s 0 -d 2 -p tcp -e 1040 -c 0 -i 5 -a 0 -x {0.0 3.0 -1 ------- null}
+ -t 1.00864 -s 0 -d 2 -p tcp -e 1040 -c 0 -i 6 -a 0 -x {0.0 3.0 2 ------- null}
r -t 1.00943 -s 2 -d 3 -p cbr -e 210 -c 0 -i 2 -a 0 -x {1.0 3.1 1 ------- null}
r -t 1.01034 -s 1 -d 2 -p cbr -e 210 -c 0 -i 4 -a 0 -x {1.0 3.1 2 ------- null}
+ -t 1.01034 -s 2 -d 3 -p cbr -e 210 -c 0 -i 4 -a 0 -x {1.0 3.1 2 ------- null}
- -t 1.01034 -s 2 -d 3 -p cbr -e 210 -c 0 -i 4 -a 0 -x {1.0 3.1 2 ------- null}
h -t 1.01034 -s 2 -d 3 -p cbr -e 210 -c 0 -i 4 -a 0 -x {1.0 3.1 -1 ------- null}
+ -t 1.01125 -s 1 -d 2 -p cbr -e 210 -c 0 -i 7 -a 0 -x {1.0 3.1 3 ------- null}
- -t 1.01125 -s 1 -d 2 -p cbr -e 210 -c 0 -i 7 -a 0 -x {1.0 3.1 3 ------- null}
h -t 1.01125 -s 1 -d 2 -p cbr -e 210 -c 0 -i 7 -a 0 -x {1.0 3.1 -1 ------- null}
- -t 1.0128 -s 0 -d 2 -p tcp -e 1040 -c 0 -i 6 -a 0 -x {0.0 3.0 2 ------- null}
h -t 1.0128 -s 0 -d 2 -p tcp -e 1040 -c 0 -i 6 -a 0 -x {0.0 3.0 -1 ------- null}
r -t 1.01318 -s 2 -d 3 -p cbr -e 210 -c 0 -i 4 -a 0 -x {1.0 3.1 2 ------- null}
r -t 1.01409 -s 1 -d 2 -p cbr -e 210 -c 0 -i 7 -a 0 -x {1.0 3.1 3 ------- null}
+ -t 1.01409 -s 2 -d 3 -p cbr -e 210 -c 0 -i 7 -a 0 -x {1.0 3.1 3 ------- null}
- -t 1.01409 -s 2 -d 3 -p cbr -e 210 -c 0 -i 7 -a 0 -x {1.0 3.1 3 ------- null}
h -t 1.01409 -s 2 -d 3 -p cbr -e 210 -c 0 -i 7 -a 0 -x {1.0 3.1 -1 ------- null}
r -t 1.0148 -s 0 -d 2 -p tcp -e 1040 -c 0 -i 5 -a 0 -x {0.0 3.0 1 ------- null}
+ -t 1.0148 -s 2 -d 3 -p tcp -e 1040 -c 0 -i 5 -a 0 -x {0.0 3.0 1 ------- null}
- -t 1.01493 -s 2 -d 3 -p tcp -e 1040 -c 0 -i 5 -a 0 -x {0.0 3.0 1 ------- null}
h -t 1.01493 -s 2 -d 3 -p tcp -e 1040 -c 0 -i 5 -a 0 -x {0.0 3.0 -1 ------- null}
+ -t 1.015 -s 1 -d 2 -p cbr -e 210 -c 0 -i 8 -a 0 -x {1.0 3.1 4 ------- null}
- -t 1.015 -s 1 -d 2 -p cbr -e 210 -c 0 -i 8 -a 0 -x {1.0 3.1 4 ------- null}
h -t 1.015 -s 1 -d 2 -p cbr -e 210 -c 0 -i 8 -a 0 -x {1.0 3.1 -1 ------- null}
r -t 1.01693 -s 2 -d 3 -p cbr -e 210 -c 0 -i 7 -a 0 -x {1.0 3.1 3 ------- null}
r -t 1.01784 -s 1 -d 2 -p cbr -e 210 -c 0 -i 8 -a 0 -x {1.0 3.1 4 ------- null}
+ -t 1.01784 -s 2 -d 3 -p cbr -e 210 -c 0 -i 8 -a 0 -x {1.0 3.1 4 ------- null}
+ -t 1.01875 -s 1 -d 2 -p cbr -e 210 -c 0 -i 9 -a 0 -x {1.0 3.1 5 ------- null}
- -t 1.01875 -s 1 -d 2 -p cbr -e 210 -c 0 -i 9 -a 0 -x {1.0 3.1 5 ------- null}
h -t 1.01875 -s 1 -d 2 -p cbr -e 210 -c 0 -i 9 -a 0 -x {1.0 3.1 -1 ------- null}
r -t 1.01896 -s 0 -d 2 -p tcp -e 1040 -c 0 -i 6 -a 0 -x {0.0 3.0 2 ------- null}
+ -t 1.01896 -s 2 -d 3 -p tcp -e 1040 -c 0 -i 6 -a 0 -x {0.0 3.0 2 ------- null}
- -t 1.01909 -s 2 -d 3 -p cbr -e 210 -c 0 -i 8 -a 0 -x {1.0 3.1 4 ------- null}
h -t 1.01909 -s 2 -d 3 -p cbr -e 210 -c 0 -i 8 -a 0 -x {1.0 3.1 -1 ------- null}
- -t 1.01993 -s 2 -d 3 -p tcp -e 1040 -c 0 -i 6 -a 0 -x {0.0 3.0 2 ------- null}
h -t 1.01993 -s 2 -d 3 -p tcp -e 1040 -c 0 -i 6 -a 0 -x {0.0 3.0 -1 ------- null}
r -t 1.02109 -s 2 -d 3 -p tcp -e 1040 -c 0 -i 5 -a 0 -x {0.0 3.0 1 ------- null}
+ -t 1.02109 -s 3 -d 2 -p ack -e 40 -c 0 -i 10 -a 0 -x {3.0 0.0 1 ------- null}
- -t 1.02109 -s 3 -d 2 -p ack -e 40 -c 0 -i 10 -a 0 -x {3.0 0.0 1 ------- null}
h -t 1.02109 -s 3 -d 2 -p ack -e 40 -c 0 -i 10 -a 0 -x {3.0 0.0 -1 ------- null}
r -t 1.02159 -s 1 -d 2 -p cbr -e 210 -c 0 -i 9 -a 0 -x {1.0 3.1 5 ------- null}
+ -t 1.02159 -s 2 -d 3 -p cbr -e 210 -c 0 -i 9 -a 0 -x {1.0 3.1 5 ------- null}
r -t 1.02193 -s 2 -d 3 -p cbr -e 210 -c 0 -i 8 -a 0 -x {1.0 3.1 4 ------- null}
+ -t 1.0225 -s 1 -d 2 -p cbr -e 210 -c 0 -i 11 -a 0 -x {1.0 3.1 6 ------- null}
- -t 1.0225 -s 1 -d 2 -p cbr -e 210 -c 0 -i 11 -a 0 -x {1.0 3.1 6 ------- null}
h -t 1.0225 -s 1 -d 2 -p cbr -e 210 -c 0 -i 11 -a 0 -x {1.0 3.1 -1 ------- null}
r -t 1.02325 -s 3 -d 2 -p ack -e 40 -c 0 -i 10 -a 0 -x {3.0 0.0 1 ------- null}
+ -t 1.02325 -s 2 -d 0 -p ack -e 40 -c 0 -i 10 -a 0 -x {3.0 0.0 1 ------- null}
- -t 1.02325 -s 2 -d 0 -p ack -e 40 -c 0 -i 10 -a 0 -x {3.0 0.0 1 ------- null}
h -t 1.02325 -s 2 -d 0 -p ack -e 40 -c 0 -i 10 -a 0 -x {3.0 0.0 -1 ------- null}
- -t 1.02409 -s 2 -d 3 -p cbr -e 210 -c 0 -i 9 -a 0 -x {1.0 3.1 5 ------- null}
h -t 1.02409 -s 2 -d 3 -p cbr -e 210 -c 0 -i 9 -a 0 -x {1.0 3.1 -1 ------- null}
r -t 1.02534 -s 1 -d 2 -p cbr -e 210 -c 0 -i 11 -a 0 -x {1.0 3.1 6 ------- null}
+ -t 1.02534 -s 2 -d 3 -p cbr -e 210 -c 0 -i 11 -a 0 -x {1.0 3.1 6 ------- null}
- -t 1.02534 -s 2 -d 3 -p cbr -e 210 -c 0 -i 11 -a 0 -x {1.0 3.1 6 ------- null}
h -t 1.02534 -s 2 -d 3 -p cbr -e 210 -c 0 -i 11 -a 0 -x {1.0 3.1 -1 ------- null}
r -t 1.02541 -s 2 -d 0 -p ack -e 40 -c 0 -i 10 -a 0 -x {3.0 0.0 1 ------- null}
+ -t 1.02541 -s 0 -d 2 -p tcp -e 1040 -c 0 -i 12 -a 0 -x {0.0 3.0 3 ------- null}
- -t 1.02541 -s 0 -d 2 -p tcp -e 1040 -c 0 -i 12 -a 0 -x {0.0 3.0 3 ------- null}
h -t 1.02541 -s 0 -d 2 -p tcp -e 1040 -c 0 -i 12 -a 0 -x {0.0 3.0 -1 ------- null}
+ -t 1.02541 -s 0 -d 2 -p tcp -e 1040 -c 0 -i 13 -a 0 -x {0.0 3.0 4 ------- null}
r -t 1.02609 -s 2 -d 3 -p tcp -e 1040 -c 0 -i 6 -a 0 -x {0.0 3.0 2 ------- null}
+ -t 1.02609 -s 3 -d 2 -p ack -e 40 -c 0 -i 14 -a 0 -x {3.0 0.0 2 ------- null}
- -t 1.02609 -s 3 -d 2 -p ack -e 40 -c 0 -i 14 -a 0 -x {3.0 0.0 2 ------- null}
h -t 1.02609 -s 3 -d 2 -p ack -e 40 -c 0 -i 14 -a 0 -x {3.0 0.0 -1 ------- null}
+ -t 1.02625 -s 1 -d 2 -p cbr -e 210 -c 0 -i 15 -a 0 -x {1.0 3.1 7 ------- null}
- -t 1.02625 -s 1 -d 2 -p cbr -e 210 -c 0 -i 15 -a 0 -x {1.0 3.1 7 ------- null}
h -t 1.02625 -s 1 -d 2 -p cbr -e 210 -c 0 -i 15 -a 0 -x {1.0 3.1 -1 ------- null}
r -t 1.02693 -s 2 -d 3 -p cbr -e 210 -c 0 -i 9 -a 0 -x {1.0 3.1 5 ------- null}
r -t 1.02818 -s 2 -d 3 -p cbr -e 210 -c 0 -i 11 -a 0 -x {1.0 3.1 6 ------- null}
r -t 1.02825 -s 3 -d 2 -p ack -e 40 -c 0 -i 14 -a 0 -x {3.0 0.0 2 ------- null}
+ -t 1.02825 -s 2 -d 0 -p ack -e 40 -c 0 -i 14 -a 0 -x {3.0 0.0 2 ------- null}
- -t 1.02825 -s 2 -d 0 -p ack -e 40 -c 0 -i 14 -a 0 -x {3.0 0.0 2 ------- null}
h -t 1.02825 -s 2 -d 0 -p ack -e 40 -c 0 -i 14 -a 0 -x {3.0 0.0 -1 ------- null}
r -t 1.02909 -s 1 -d 2 -p cbr -e 210 -c 0 -i 15 -a 0 -x {1.0 3.1 7 ------- null}
+ -t 1.02909 -s 2 -d 3 -p cbr -e 210 -c 0 -i 15 -a 0 -x {1.0 3.1 7 ------- null}
- -t 1.02909 -s 2 -d 3 -p cbr -e 210 -c 0 -i 15 -a 0 -x {1.0 3.1 7 ------- null}
h -t 1.02909 -s 2 -d 3 -p cbr -e 210 -c 0 -i 15 -a 0 -x {1.0 3.1 -1 ------- null}
- -t 1.02957 -s 0 -d 2 -p tcp -e 1040 -c 0 -i 13 -a 0 -x {0.0 3.0 4 ------- null}
h -t 1.02957 -s 0 -d 2 -p tcp -e 1040 -c 0 -i 13 -a 0 -x {0.0 3.0 -1 ------- null}
+ -t 1.03 -s 1 -d 2 -p cbr -e 210 -c 0 -i 16 -a 0 -x {1.0 3.1 8 ------- null}
- -t 1.03 -s 1 -d 2 -p cbr -e 210 -c 0 -i 16 -a 0 -x {1.0 3.1 8 ------- null}
h -t 1.03 -s 1 -d 2 -p cbr -e 210 -c 0 -i 16 -a 0 -x {1.0 3.1 -1 ------- null}
r -t 1.03041 -s 2 -d 0 -p ack -e 40 -c 0 -i 14 -a 0 -x {3.0 0.0 2 ------- null}
+ -t 1.03041 -s 0 -d 2 -p tcp -e 1040 -c 0 -i 17 -a 0 -x {0.0 3.0 5 ------- null}
+ -t 1.03041 -s 0 -d 2 -p tcp -e 1040 -c 0 -i 18 -a 0 -x {0.0 3.0 6 ------- null}
r -t 1.03157 -s 0 -d 2 -p tcp -e 1040 -c 0 -i 12 -a 0 -x {0.0 3.0 3 ------- null}
+ -t 1.03157 -s 2 -d 3 -p tcp -e 1040 -c 0 -i 12 -a 0 -x {0.0 3.0 3 ------- null}
- -t 1.03157 -s 2 -d 3 -p tcp -e 1040 -c 0 -i 12 -a 0 -x {0.0 3.0 3 ------- null}
h -t 1.03157 -s 2 -d 3 -p tcp -e 1040 -c 0 -i 12 -a 0 -x {0.0 3.0 -1 ------- null}
r -t 1.03193 -s 2 -d 3 -p cbr -e 210 -c 0 -i 15 -a 0 -x {1.0 3.1 7 ------- null}
r -t 1.03284 -s 1 -d 2 -p cbr -e 210 -c 0 -i 16 -a 0 -x {1.0 3.1 8 ------- null}
+ -t 1.03284 -s 2 -d 3 -p cbr -e 210 -c 0 -i 16 -a 0 -x {1.0 3.1 8 ------- null}
- -t 1.03373 -s 0 -d 2 -p tcp -e 1040 -c 0 -i 17 -a 0 -x {0.0 3.0 5 ------- null}
h -t 1.03373 -s 0 -d 2 -p tcp -e 1040 -c 0 -i 17 -a 0 -x {0.0 3.0 -1 ------- null}
+ -t 1.03375 -s 1 -d 2 -p cbr -e 210 -c 0 -i 19 -a 0 -x {1.0 3.1 9 ------- null}
- -t 1.03375 -s 1 -d 2 -p cbr -e 210 -c 0 -i 19 -a 0 -x {1.0 3.1 9 ------- null}
h -t 1.03375 -s 1 -d 2 -p cbr -e 210 -c 0 -i 19 -a 0 -x {1.0 3.1 -1 ------- null}
r -t 1.03573 -s 0 -d 2 -p tcp -e 1040 -c 0 -i 13 -a 0 -x {0.0 3.0 4 ------- null}
+ -t 1.03573 -s 2 -d 3 -p tcp -e 1040 -c 0 -i 13 -a 0 -x {0.0 3.0 4 ------- null}
- -t 1.03573 -s 2 -d 3 -p cbr -e 210 -c 0 -i 16 -a 0 -x {1.0 3.1 8 ------- null}
h -t 1.03573 -s 2 -d 3 -p cbr -e 210 -c 0 -i 16 -a 0 -x {1.0 3.1 -1 ------- null}
- -t 1.03657 -s 2 -d 3 -p tcp -e 1040 -c 0 -i 13 -a 0 -x {0.0 3.0 4 ------- null}
h -t 1.03657 -s 2 -d 3 -p tcp -e 1040 -c 0 -i 13 -a 0 -x {0.0 3.0 -1 ------- null}
r -t 1.03659 -s 1 -d 2 -p cbr -e 210 -c 0 -i 19 -a 0 -x {1.0 3.1 9 ------- null}
+ -t 1.03659 -s 2 -d 3 -p cbr -e 210 -c 0 -i 19 -a 0 -x {1.0 3.1 9 ------- null}
+ -t 1.0375 -s 1 -d 2 -p cbr -e 210 -c 0 -i 20 -a 0 -x {1.0 3.1 10 ------- null}
- -t 1.0375 -s 1 -d 2 -p cbr -e 210 -c 0 -i 20 -a 0 -x {1.0 3.1 10 ------- null}
h -t 1.0375 -s 1 -d 2 -p cbr -e 210 -c 0 -i 20 -a 0 -x {1.0 3.1 -1 ------- null}
r -t 1.03773 -s 2 -d 3 -p tcp -e 1040 -c 0 -i 12 -a 0 -x {0.0 3.0 3 ------- null}
+ -t 1.03773 -s 3 -d 2 -p ack -e 40 -c 0 -i 21 -a 0 -x {3.0 0.0 3 ------- null}
- -t 1.03773 -s 3 -d 2 -p ack -e 40 -c 0 -i 21 -a 0 -x {3.0 0.0 3 ------- null}
h -t 1.03773 -s 3 -d 2 -p ack -e 40 -c 0 -i 21 -a 0 -x {3.0 0.0 -1 ------- null}
- -t 1.03789 -s 0 -d 2 -p tcp -e 1040 -c 0 -i 18 -a 0 -x {0.0 3.0 6 ------- null}
h -t 1.03789 -s 0 -d 2 -p tcp -e 1040 -c 0 -i 18 -a 0 -x {0.0 3.0 -1 ------- null}
r -t 1.03857 -s 2 -d 3 -p cbr -e 210 -c 0 -i 16 -a 0 -x {1.0 3.1 8 ------- null}
r -t 1.03989 -s 0 -d 2 -p tcp -e 1040 -c 0 -i 17 -a 0 -x {0.0 3.0 5 ------- null}
+ -t 1.03989 -s 2 -d 3 -p tcp -e 1040 -c 0 -i 17 -a 0 -x {0.0 3.0 5 ------- null}
r -t 1.03989 -s 3 -d 2 -p ack -e 40 -c 0 -i 21 -a 0 -x {3.0 0.0 3 ------- null}
+ -t 1.03989 -s 2 -d 0 -p ack -e 40 -c 0 -i 21 -a 0 -x {3.0 0.0 3 ------- null}
- -t 1.03989 -s 2 -d 0 -p ack -e 40 -c 0 -i 21 -a 0 -x {3.0 0.0 3 ------- null}
h -t 1.03989 -s 2 -d 0 -p ack -e 40 -c 0 -i 21 -a 0 -x {3.0 0.0 -1 ------- null}
r -t 1.04034 -s 1 -d 2 -p cbr -e 210 -c 0 -i 20 -a 0 -x {1.0 3.1 10 ------- null}
+ -t 1.04034 -s 2 -d 3 -p cbr -e 210 -c 0 -i 20 -a 0 -x {1.0 3.1 10 ------- null}
- -t 1.04073 -s 2 -d 3 -p cbr -e 210 -c 0 -i 19 -a 0 -x {1.0 3.1 9 ------- null}
h -t 1.04073 -s 2 -d 3 -p cbr -e 210 -c 0 -i 19 -a 0 -x {1.0 3.1 -1 ------- null}
+ -t 1.04125 -s 1 -d 2 -p cbr -e 210 -c 0 -i 22 -a 0 -x {1.0 3.1 11 ------- null}
- -t 1.04125 -s 1 -d 2 -p cbr -e 210 -c 0 -i 22 -a 0 -x {1.0 3.1 11 ------- null}
h -t 1.04125 -s 1 -d 2 -p cbr -e 210 -c 0 -i 22 -a 0 -x {1.0 3.1 -1 ------- null}
- -t 1.04157 -s 2 -d 3 -p tcp -e 1040 -c 0 -i 17 -a 0 -x {0.0 3.0 5 ------- null}
h -t 1.04157 -s 2 -d 3 -p tcp -e 1040 -c 0 -i 17 -a 0 -x {0.0 3.0 -1 ------- null}
r -t 1.04205 -s 2 -d 0 -p ack -e 40 -c 0 -i 21 -a 0 -x {3.0 0.0 3 ------- null}
+ -t 1.04205 -s 0 -d 2 -p tcp -e 1040 -c 0 -i 23 -a 0 -x {0.0 3.0 7 ------- null}
- -t 1.04205 -s 0 -d 2 -p tcp -e 1040 -c 0 -i 23 -a 0 -x {0.0 3.0 7 ------- null}
h -t 1.04205 -s 0 -d 2 -p tcp -e 1040 -c 0 -i 23 -a 0 -x {0.0 3.0 -1 ------- null}
+ -t 1.04205 -s 0 -d 2 -p tcp -e 1040 -c 0 -i 24 -a 0 -x {0.0 3.0 8 ------- null}
r -t 1.04273 -s 2 -d 3 -p tcp -e 1040 -c 0 -i 13 -a 0 -x {0.0 3.0 4 ------- null}
+ -t 1.04273 -s 3 -d 2 -p ack -e 40 -c 0 -i 25 -a 0 -x {3.0 0.0 4 ------- null}
- -t 1.04273 -s 3 -d 2 -p ack -e 40 -c 0 -i 25 -a 0 -x {3.0 0.0 4 ------- null}
h -t 1.04273 -s 3 -d 2 -p ack -e 40 -c 0 -i 25 -a 0 -x {3.0 0.0 -1 ------- null}
r -t 1.04357 -s 2 -d 3 -p cbr -e 210 -c 0 -i 19 -a 0 -x {1.0 3.1 9 ------- null}
r -t 1.04405 -s 0 -d 2 -p tcp -e 1040 -c 0 -i 18 -a 0 -x {0.0 3.0 6 ------- null}
+ -t 1.04405 -s 2 -d 3 -p tcp -e 1040 -c 0 -i 18 -a 0 -x {0.0 3.0 6 ------- null}
r -t 1.04409 -s 1 -d 2 -p cbr -e 210 -c 0 -i 22 -a 0 -x {1.0 3.1 11 ------- null}
+ -t 1.04409 -s 2 -d 3 -p cbr -e 210 -c 0 -i 22 -a 0 -x {1.0 3.1 11 ------- null}
r -t 1.04489 -s 3 -d 2 -p ack -e 40 -c 0 -i 25 -a 0 -x {3.0 0.0 4 ------- null}
+ -t 1.04489 -s 2 -d 0 -p ack -e 40 -c 0 -i 25 -a 0 -x {3.0 0.0 4 ------- null}
- -t 1.04489 -s 2 -d 0 -p ack -e 40 -c 0 -i 25 -a 0 -x {3.0 0.0 4 ------- null}
h -t 1.04489 -s 2 -d 0 -p ack -e 40 -c 0 -i 25 -a 0 -x {3.0 0.0 -1 ------- null}
+ -t 1.045 -s 1 -d 2 -p cbr -e 210 -c 0 -i 26 -a 0 -x {1.0 3.1 12 ------- null}
- -t 1.045 -s 1 -d 2 -p cbr -e 210 -c 0 -i 26 -a 0 -x {1.0 3.1 12 ------- null}
h -t 1.045 -s 1 -d 2 -p cbr -e 210 -c 0 -i 26 -a 0 -x {1.0 3.1 -1 ------- null}
- -t 1.04573 -s 2 -d 3 -p cbr -e 210 -c 0 -i 20 -a 0 -x {1.0 3.1 10 ------- null}
h -t 1.04573 -s 2 -d 3 -p cbr -e 210 -c 0 -i 20 -a 0 -x {1.0 3.1 -1 ------- null}
- -t 1.04621 -s 0 -d 2 -p tcp -e 1040 -c 0 -i 24 -a 0 -x {0.0 3.0 8 ------- null}
h -t 1.04621 -s 0 -d 2 -p tcp -e 1040 -c 0 -i 24 -a 0 -x {0.0 3.0 -1 ------- null}
- -t 1.04657 -s 2 -d 3 -p tcp -e 1040 -c 0 -i 18 -a 0 -x {0.0 3.0 6 ------- null}
h -t 1.04657 -s 2 -d 3 -p tcp -e 1040 -c 0 -i 18 -a 0 -x {0.0 3.0 -1 ------- null}
r -t 1.04705 -s 2 -d 0 -p ack -e 40 -c 0 -i 25 -a 0 -x {3.0 0.0 4 ------- null}
+ -t 1.04705 -s 0 -d 2 -p tcp -e 1040 -c 0 -i 27 -a 0 -x {0.0 3.0 9 ------- null}
+ -t 1.04705 -s 0 -d 2 -p tcp -e 1040 -c 0 -i 28 -a 0 -x {0.0 3.0 10 ------- null}
r -t 1.04773 -s 2 -d 3 -p tcp -e 1040 -c 0 -i 17 -a 0 -x {0.0 3.0 5 ------- null}
+ -t 1.04773 -s 3 -d 2 -p ack -e 40 -c 0 -i 29 -a 0 -x {3.0 0.0 5 ------- null}
- -t 1.04773 -s 3 -d 2 -p ack -e 40 -c 0 -i 29 -a 0 -x {3.0 0.0 5 ------- null}
h -t 1.04773 -s 3 -d 2 -p ack -e 40 -c 0 -i 29 -a 0 -x {3.0 0.0 -1 ------- null}
r -t 1.04784 -s 1 -d 2 -p cbr -e 210 -c 0 -i 26 -a 0 -x {1.0 3.1 12 ------- null}
+ -t 1.04784 -s 2 -d 3 -p cbr -e 210 -c 0 -i 26 -a 0 -x {1.0 3.1 12 ------- null}
r -t 1.04821 -s 0 -d 2 -p tcp -e 1040 -c 0 -i 23 -a 0 -x {0.0 3.0 7 ------- null}
+ -t 1.04821 -s 2 -d 3 -p tcp -e 1040 -c 0 -i 23 -a 0 -x {0.0 3.0 7 ------- null}
r -t 1.04857 -s 2 -d 3 -p cbr -e 210 -c 0 -i 20 -a 0 -x {1.0 3.1 10 ------- null}
+ -t 1.04875 -s 1 -d 2 -p cbr -e 210 -c 0 -i 30 -a 0 -x {1.0 3.1 13 ------- null}
- -t 1.04875 -s 1 -d 2 -p cbr -e 210 -c 0 -i 30 -a 0 -x {1.0 3.1 13 ------- null}
h -t 1.04875 -s 1 -d 2 -p cbr -e 210 -c 0 -i 30 -a 0 -x {1.0 3.1 -1 ------- null}
r -t 1.04989 -s 3 -d 2 -p ack -e 40 -c 0 -i 29 -a 0 -x {3.0 0.0 5 ------- null}
+ -t 1.04989 -s 2 -d 0 -p ack -e 40 -c 0 -i 29 -a 0 -x {3.0 0.0 5 ------- null}
- -t 1.04989 -s 2 -d 0 -p ack -e 40 -c 0 -i 29 -a 0 -x {3.0 0.0 5 ------- null}
h -t 1.04989 -s 2 -d 0 -p ack -e 40 -c 0 -i 29 -a 0 -x {3.0 0.0 -1 ------- null}
- -t 1.05037 -s 0 -d 2 -p tcp -e 1040 -c 0 -i 27 -a 0 -x {0.0 3.0 9 ------- null}
h -t 1.05037 -s 0 -d 2 -p tcp -e 1040 -c 0 -i 27 -a 0 -x {0.0 3.0 -1 ------- null}
- -t 1.05073 -s 2 -d 3 -p cbr -e 210 -c 0 -i 22 -a 0 -x {1.0 3.1 11 ------- null}
h -t 1.05073 -s 2 -d 3 -p cbr -e 210 -c 0 -i 22 -a 0 -x {1.0 3.1 -1 ------- null}
- -t 1.05157 -s 2 -d 3 -p cbr -e 210 -c 0 -i 26 -a 0 -x {1.0 3.1 12 ------- null}
h -t 1.05157 -s 2 -d 3 -p cbr -e 210 -c 0 -i 26 -a 0 -x {1.0 3.1 -1 ------- null}
r -t 1.05159 -s 1 -d 2 -p cbr -e 210 -c 0 -i 30 -a 0 -x {1.0 3.1 13 ------- null}
+ -t 1.05159 -s 2 -d 3 -p cbr -e 210 -c 0 -i 30 -a 0 -x {1.0 3.1 13 ------- null}
r -t 1.05205 -s 2 -d 0 -p ack -e 40 -c 0 -i 29 -a 0 -x {3.0 0.0 5 ------- null}
+ -t 1.05205 -s 0 -d 2 -p tcp -e 1040 -c 0 -i 31 -a 0 -x {0.0 3.0 11 ------- null}
+ -t 1.05205 -s 0 -d 2 -p tcp -e 1040 -c 0 -i 32 -a 0 -x {0.0 3.0 12 ------- null}
r -t 1.05237 -s 0 -d 2 -p tcp -e 1040 -c 0 -i 24 -a 0 -x {0.0 3.0 8 ------- null}
+ -t 1.05237 -s 2 -d 3 -p tcp -e 1040 -c 0 -i 24 -a 0 -x {0.0 3.0 8 ------- null}
- -t 1.05241 -s 2 -d 3 -p tcp -e 1040 -c 0 -i 23 -a 0 -x {0.0 3.0 7 ------- null}
h -t 1.05241 -s 2 -d 3 -p tcp -e 1040 -c 0 -i 23 -a 0 -x {0.0 3.0 -1 ------- null}
+ -t 1.0525 -s 1 -d 2 -p cbr -e 210 -c 0 -i 33 -a 0 -x {1.0 3.1 14 ------- null}
- -t 1.0525 -s 1 -d 2 -p cbr -e 210 -c 0 -i 33 -a 0 -x {1.0 3.1 14 ------- null}
h -t 1.0525 -s 1 -d 2 -p cbr -e 210 -c 0 -i 33 -a 0 -x {1.0 3.1 -1 ------- null}
r -t 1.05273 -s 2 -d 3 -p tcp -e 1040 -c 0 -i 18 -a 0 -x {0.0 3.0 6 ------- null}
+ -t 1.05273 -s 3 -d 2 -p ack -e 40 -c 0 -i 34 -a 0 -x {3.0 0.0 6 ------- null}
- -t 1.05273 -s 3 -d 2 -p ack -e 40 -c 0 -i 34 -a 0 -x {3.0 0.0 6 ------- null}
h -t 1.05273 -s 3 -d 2 -p ack -e 40 -c 0 -i 34 -a 0 -x {3.0 0.0 -1 ------- null}
r -t 1.05357 -s 2 -d 3 -p cbr -e 210 -c 0 -i 22 -a 0 -x {1.0 3.1 11 ------- null}
r -t 1.05441 -s 2 -d 3 -p cbr -e 210 -c 0 -i 26 -a 0 -x {1.0 3.1 12 ------- null}
- -t 1.05453 -s 0 -d 2 -p tcp -e 1040 -c 0 -i 28 -a 0 -x {0.0 3.0 10 ------- null}
h -t 1.05453 -s 0 -d 2 -p tcp -e 1040 -c 0 -i 28 -a 0 -x {0.0 3.0 -1 ------- null}
r -t 1.05489 -s 3 -d 2 -p ack -e 40 -c 0 -i 34 -a 0 -x {3.0 0.0 6 ------- null}
+ -t 1.05489 -s 2 -d 0 -p ack -e 40 -c 0 -i 34 -a 0 -x {3.0 0.0 6 ------- null}
- -t 1.05489 -s 2 -d 0 -p ack -e 40 -c 0 -i 34 -a 0 -x {3.0 0.0 6 ------- null}
h -t 1.05489 -s 2 -d 0 -p ack -e 40 -c 0 -i 34 -a 0 -x {3.0 0.0 -1 ------- null}
r -t 1.05534 -s 1 -d 2 -p cbr -e 210 -c 0 -i 33 -a 0 -x {1.0 3.1 14 ------- null}
+ -t 1.05534 -s 2 -d 3 -p cbr -e 210 -c 0 -i 33 -a 0 -x {1.0 3.1 14 ------- null}
+ -t 1.05625 -s 1 -d 2 -p cbr -e 210 -c 0 -i 35 -a 0 -x {1.0 3.1 15 ------- null}
- -t 1.05625 -s 1 -d 2 -p cbr -e 210 -c 0 -i 35 -a 0 -x {1.0 3.1 15 ------- null}
h -t 1.05625 -s 1 -d 2 -p cbr -e 210 -c 0 -i 35 -a 0 -x {1.0 3.1 -1 ------- null}
r -t 1.05653 -s 0 -d 2 -p tcp -e 1040 -c 0 -i 27 -a 0 -x {0.0 3.0 9 ------- null}
+ -t 1.05653 -s 2 -d 3 -p tcp -e 1040 -c 0 -i 27 -a 0 -x {0.0 3.0 9 ------- null}
- -t 1.05657 -s 2 -d 3 -p cbr -e 210 -c 0 -i 30 -a 0 -x {1.0 3.1 13 ------- null}
h -t 1.05657 -s 2 -d 3 -p cbr -e 210 -c 0 -i 30 -a 0 -x {1.0 3.1 -1 ------- null}
r -t 1.05705 -s 2 -d 0 -p ack -e 40 -c 0 -i 34 -a 0 -x {3.0 0.0 6 ------- null}
+ -t 1.05705 -s 0 -d 2 -p tcp -e 1040 -c 0 -i 36 -a 0 -x {0.0 3.0 13 ------- null}
+ -t 1.05705 -s 0 -d 2 -p tcp -e 1040 -c 0 -i 37 -a 0 -x {0.0 3.0 14 ------- null}
- -t 1.05741 -s 2 -d 3 -p tcp -e 1040 -c 0 -i 24 -a 0 -x {0.0 3.0 8 ------- null}
h -t 1.05741 -s 2 -d 3 -p tcp -e 1040 -c 0 -i 24 -a 0 -x {0.0 3.0 -1 ------- null}
r -t 1.05857 -s 2 -d 3 -p tcp -e 1040 -c 0 -i 23 -a 0 -x {0.0 3.0 7 ------- null}
+ -t 1.05857 -s 3 -d 2 -p ack -e 40 -c 0 -i 38 -a 0 -x {3.0 0.0 7 ------- null}
- -t 1.05857 -s 3 -d 2 -p ack -e 40 -c 0 -i 38 -a 0 -x {3.0 0.0 7 ------- null}
h -t 1.05857 -s 3 -d 2 -p ack -e 40 -c 0 -i 38 -a 0 -x {3.0 0.0 -1 ------- null}
- -t 1.05869 -s 0 -d 2 -p tcp -e 1040 -c 0 -i 31 -a 0 -x {0.0 3.0 11 ------- null}
h -t 1.05869 -s 0 -d 2 -p tcp -e 1040 -c 0 -i 31 -a 0 -x {0.0 3.0 -1 ------- null}
r -t 1.05909 -s 1 -d 2 -p cbr -e 210 -c 0 -i 35 -a 0 -x {1.0 3.1 15 ------- null}
+ -t 1.05909 -s 2 -d 3 -p cbr -e 210 -c 0 -i 35 -a 0 -x {1.0 3.1 15 ------- null}
r -t 1.05941 -s 2 -d 3 -p cbr -e 210 -c 0 -i 30 -a 0 -x {1.0 3.1 13 ------- null}
+ -t 1.06 -s 1 -d 2 -p cbr -e 210 -c 0 -i 39 -a 0 -x {1.0 3.1 16 ------- null}
- -t 1.06 -s 1 -d 2 -p cbr -e 210 -c 0 -i 39 -a 0 -x {1.0 3.1 16 ------- null}
h -t 1.06 -s 1 -d 2 -p cbr -e 210 -c 0 -i 39 -a 0 -x {1.0 3.1 -1 ------- null}
r -t 1.06069 -s 0 -d 2 -p tcp -e 1040 -c 0 -i 28 -a 0 -x {0.0 3.0 10 ------- null}
+ -t 1.06069 -s 2 -d 3 -p tcp -e 1040 -c 0 -i 28 -a 0 -x {0.0 3.0 10 ------- null}
r -t 1.06073 -s 3 -d 2 -p ack -e 40 -c 0 -i 38 -a 0 -x {3.0 0.0 7 ------- null}
+ -t 1.06073 -s 2 -d 0 -p ack -e 40 -c 0 -i 38 -a 0 -x {3.0 0.0 7 ------- null}
- -t 1.06073 -s 2 -d 0 -p ack -e 40 -c 0 -i 38 -a 0 -x {3.0 0.0 7 ------- null}
h -t 1.06073 -s 2 -d 0 -p ack -e 40 -c 0 -i 38 -a 0 -x {3.0 0.0 -1 ------- null}
- -t 1.06157 -s 2 -d 3 -p cbr -e 210 -c 0 -i 33 -a 0 -x {1.0 3.1 14 ------- null}
h -t 1.06157 -s 2 -d 3 -p cbr -e 210 -c 0 -i 33 -a 0 -x {1.0 3.1 -1 ------- null}
- -t 1.06241 -s 2 -d 3 -p tcp -e 1040 -c 0 -i 27 -a 0 -x {0.0 3.0 9 ------- null}
h -t 1.06241 -s 2 -d 3 -p tcp -e 1040 -c 0 -i 27 -a 0 -x {0.0 3.0 -1 ------- null}
r -t 1.06284 -s 1 -d 2 -p cbr -e 210 -c 0 -i 39 -a 0 -x {1.0 3.1 16 ------- null}
+ -t 1.06284 -s 2 -d 3 -p cbr -e 210 -c 0 -i 39 -a 0 -x {1.0 3.1 16 ------- null}
- -t 1.06285 -s 0 -d 2 -p tcp -e 1040 -c 0 -i 32 -a 0 -x {0.0 3.0 12 ------- null}
h -t 1.06285 -s 0 -d 2 -p tcp -e 1040 -c 0 -i 32 -a 0 -x {0.0 3.0 -1 ------- null}
r -t 1.06289 -s 2 -d 0 -p ack -e 40 -c 0 -i 38 -a 0 -x {3.0 0.0 7 ------- null}
+ -t 1.06289 -s 0 -d 2 -p tcp -e 1040 -c 0 -i 40 -a 0 -x {0.0 3.0 15 ------- null}
+ -t 1.06289 -s 0 -d 2 -p tcp -e 1040 -c 0 -i 41 -a 0 -x {0.0 3.0 16 ------- null}
r -t 1.06357 -s 2 -d 3 -p tcp -e 1040 -c 0 -i 24 -a 0 -x {0.0 3.0 8 ------- null}
+ -t 1.06357 -s 3 -d 2 -p ack -e 40 -c 0 -i 42 -a 0 -x {3.0 0.0 8 ------- null}
- -t 1.06357 -s 3 -d 2 -p ack -e 40 -c 0 -i 42 -a 0 -x {3.0 0.0 8 ------- null}
h -t 1.06357 -s 3 -d 2 -p ack -e 40 -c 0 -i 42 -a 0 -x {3.0 0.0 -1 ------- null}
+ -t 1.06375 -s 1 -d 2 -p cbr -e 210 -c 0 -i 43 -a 0 -x {1.0 3.1 17 ------- null}
- -t 1.06375 -s 1 -d 2 -p cbr -e 210 -c 0 -i 43 -a 0 -x {1.0 3.1 17 ------- null}
h -t 1.06375 -s 1 -d 2 -p cbr -e 210 -c 0 -i 43 -a 0 -x {1.0 3.1 -1 ------- null}
r -t 1.06441 -s 2 -d 3 -p cbr -e 210 -c 0 -i 33 -a 0 -x {1.0 3.1 14 ------- null}
r -t 1.06485 -s 0 -d 2 -p tcp -e 1040 -c 0 -i 31 -a 0 -x {0.0 3.0 11 ------- null}
+ -t 1.06485 -s 2 -d 3 -p tcp -e 1040 -c 0 -i 31 -a 0 -x {0.0 3.0 11 ------- null}
r -t 1.06573 -s 3 -d 2 -p ack -e 40 -c 0 -i 42 -a 0 -x {3.0 0.0 8 ------- null}
+ -t 1.06573 -s 2 -d 0 -p ack -e 40 -c 0 -i 42 -a 0 -x {3.0 0.0 8 ------- null}
- -t 1.06573 -s 2 -d 0 -p ack -e 40 -c 0 -i 42 -a 0 -x {3.0 0.0 8 ------- null}
h -t 1.06573 -s 2 -d 0 -p ack -e 40 -c 0 -i 42 -a 0 -x {3.0 0.0 -1 ------- null}
- -t 1.06657 -s 2 -d 3 -p cbr -e 210 -c 0 -i 35 -a 0 -x {1.0 3.1 15 ------- null}
h -t 1.06657 -s 2 -d 3 -p cbr -e 210 -c 0 -i 35 -a 0 -x {1.0 3.1 -1 ------- null}
r -t 1.06659 -s 1 -d 2 -p cbr -e 210 -c 0 -i 43 -a 0 -x {1.0 3.1 17 ------- null}
+ -t 1.06659 -s 2 -d 3 -p cbr -e 210 -c 0 -i 43 -a 0 -x {1.0 3.1 17 ------- null}
- -t 1.06701 -s 0 -d 2 -p tcp -e 1040 -c 0 -i 36 -a 0 -x {0.0 3.0 13 ------- null}
h -t 1.06701 -s 0 -d 2 -p tcp -e 1040 -c 0 -i 36 -a 0 -x {0.0 3.0 -1 ------- null}
- -t 1.06741 -s 2 -d 3 -p tcp -e 1040 -c 0 -i 28 -a 0 -x {0.0 3.0 10 ------- null}
h -t 1.06741 -s 2 -d 3 -p tcp -e 1040 -c 0 -i 28 -a 0 -x {0.0 3.0 -1 ------- null}
+ -t 1.0675 -s 1 -d 2 -p cbr -e 210 -c 0 -i 44 -a 0 -x {1.0 3.1 18 ------- null}
- -t 1.0675 -s 1 -d 2 -p cbr -e 210 -c 0 -i 44 -a 0 -x {1.0 3.1 18 ------- null}
h -t 1.0675 -s 1 -d 2 -p cbr -e 210 -c 0 -i 44 -a 0 -x {1.0 3.1 -1 ------- null}
r -t 1.06789 -s 2 -d 0 -p ack -e 40 -c 0 -i 42 -a 0 -x {3.0 0.0 8 ------- null}
+ -t 1.06789 -s 0 -d 2 -p tcp -e 1040 -c 0 -i 45 -a 0 -x {0.0 3.0 17 ------- null}
+ -t 1.06789 -s 0 -d 2 -p tcp -e 1040 -c 0 -i 46 -a 0 -x {0.0 3.0 18 ------- null}
r -t 1.06857 -s 2 -d 3 -p tcp -e 1040 -c 0 -i 27 -a 0 -x {0.0 3.0 9 ------- null}
+ -t 1.06857 -s 3 -d 2 -p ack -e 40 -c 0 -i 47 -a 0 -x {3.0 0.0 9 ------- null}
- -t 1.06857 -s 3 -d 2 -p ack -e 40 -c 0 -i 47 -a 0 -x {3.0 0.0 9 ------- null}
h -t 1.06857 -s 3 -d 2 -p ack -e 40 -c 0 -i 47 -a 0 -x {3.0 0.0 -1 ------- null}
r -t 1.06901 -s 0 -d 2 -p tcp -e 1040 -c 0 -i 32 -a 0 -x {0.0 3.0 12 ------- null}
+ -t 1.06901 -s 2 -d 3 -p tcp -e 1040 -c 0 -i 32 -a 0 -x {0.0 3.0 12 ------- null}
r -t 1.06941 -s 2 -d 3 -p cbr -e 210 -c 0 -i 35 -a 0 -x {1.0 3.1 15 ------- null}
r -t 1.07034 -s 1 -d 2 -p cbr -e 210 -c 0 -i 44 -a 0 -x {1.0 3.1 18 ------- null}
+ -t 1.07034 -s 2 -d 3 -p cbr -e 210 -c 0 -i 44 -a 0 -x {1.0 3.1 18 ------- null}
d -t 1.07034 -s 2 -d 3 -p cbr -e 210 -c 0 -i 44 -a 0 -x {1.0 3.1 18 ------- null}
r -t 1.07073 -s 3 -d 2 -p ack -e 40 -c 0 -i 47 -a 0 -x {3.0 0.0 9 ------- null}
+ -t 1.07073 -s 2 -d 0 -p ack -e 40 -c 0 -i 47 -a 0 -x {3.0 0.0 9 ------- null}
- -t 1.07073 -s 2 -d 0 -p ack -e 40 -c 0 -i 47 -a 0 -x {3.0 0.0 9 ------- null}
h -t 1.07073 -s 2 -d 0 -p ack -e 40 -c 0 -i 47 -a 0 -x {3.0 0.0 -1 ------- null}
- -t 1.07117 -s 0 -d 2 -p tcp -e 1040 -c 0 -i 37 -a 0 -x {0.0 3.0 14 ------- null}
h -t 1.07117 -s 0 -d 2 -p tcp -e 1040 -c 0 -i 37 -a 0 -x {0.0 3.0 -1 ------- null}
+ -t 1.07125 -s 1 -d 2 -p cbr -e 210 -c 0 -i 48 -a 0 -x {1.0 3.1 19 ------- null}
- -t 1.07125 -s 1 -d 2 -p cbr -e 210 -c 0 -i 48 -a 0 -x {1.0 3.1 19 ------- null}
h -t 1.07125 -s 1 -d 2 -p cbr -e 210 -c 0 -i 48 -a 0 -x {1.0 3.1 -1 ------- null}
- -t 1.07157 -s 2 -d 3 -p cbr -e 210 -c 0 -i 39 -a 0 -x {1.0 3.1 16 ------- null}
h -t 1.07157 -s 2 -d 3 -p cbr -e 210 -c 0 -i 39 -a 0 -x {1.0 3.1 -1 ------- null}
- -t 1.07241 -s 2 -d 3 -p tcp -e 1040 -c 0 -i 31 -a 0 -x {0.0 3.0 11 ------- null}
h -t 1.07241 -s 2 -d 3 -p tcp -e 1040 -c 0 -i 31 -a 0 -x {0.0 3.0 -1 ------- null}
r -t 1.07289 -s 2 -d 0 -p ack -e 40 -c 0 -i 47 -a 0 -x {3.0 0.0 9 ------- null}
+ -t 1.07289 -s 0 -d 2 -p tcp -e 1040 -c 0 -i 49 -a 0 -x {0.0 3.0 19 ------- null}
+ -t 1.07289 -s 0 -d 2 -p tcp -e 1040 -c 0 -i 50 -a 0 -x {0.0 3.0 20 ------- null}
r -t 1.07317 -s 0 -d 2 -p tcp -e 1040 -c 0 -i 36 -a 0 -x {0.0 3.0 13 ------- null}
+ -t 1.07317 -s 2 -d 3 -p tcp -e 1040 -c 0 -i 36 -a 0 -x {0.0 3.0 13 ------- null}
r -t 1.07357 -s 2 -d 3 -p tcp -e 1040 -c 0 -i 28 -a 0 -x {0.0 3.0 10 ------- null}
+ -t 1.07357 -s 3 -d 2 -p ack -e 40 -c 0 -i 51 -a 0 -x {3.0 0.0 10 ------- null}
- -t 1.07357 -s 3 -d 2 -p ack -e 40 -c 0 -i 51 -a 0 -x {3.0 0.0 10 ------- null}
h -t 1.07357 -s 3 -d 2 -p ack -e 40 -c 0 -i 51 -a 0 -x {3.0 0.0 -1 ------- null}
r -t 1.07409 -s 1 -d 2 -p cbr -e 210 -c 0 -i 48 -a 0 -x {1.0 3.1 19 ------- null}
+ -t 1.07409 -s 2 -d 3 -p cbr -e 210 -c 0 -i 48 -a 0 -x {1.0 3.1 19 ------- null}
r -t 1.07441 -s 2 -d 3 -p cbr -e 210 -c 0 -i 39 -a 0 -x {1.0 3.1 16 ------- null}
+ -t 1.075 -s 1 -d 2 -p cbr -e 210 -c 0 -i 52 -a 0 -x {1.0 3.1 20 ------- null}
- -t 1.075 -s 1 -d 2 -p cbr -e 210 -c 0 -i 52 -a 0 -x {1.0 3.1 20 ------- null}
h -t 1.075 -s 1 -d 2 -p cbr -e 210 -c 0 -i 52 -a 0 -x {1.0 3.1 -1 ------- null}
- -t 1.07533 -s 0 -d 2 -p tcp -e 1040 -c 0 -i 40 -a 0 -x {0.0 3.0 15 ------- null}
h -t 1.07533 -s 0 -d 2 -p tcp -e 1040 -c 0 -i 40 -a 0 -x {0.0 3.0 -1 ------- null}
r -t 1.07573 -s 3 -d 2 -p ack -e 40 -c 0 -i 51 -a 0 -x {3.0 0.0 10 ------- null}
+ -t 1.07573 -s 2 -d 0 -p ack -e 40 -c 0 -i 51 -a 0 -x {3.0 0.0 10 ------- null}
- -t 1.07573 -s 2 -d 0 -p ack -e 40 -c 0 -i 51 -a 0 -x {3.0 0.0 10 ------- null}
h -t 1.07573 -s 2 -d 0 -p ack -e 40 -c 0 -i 51 -a 0 -x {3.0 0.0 -1 ------- null}
- -t 1.07657 -s 2 -d 3 -p cbr -e 210 -c 0 -i 43 -a 0 -x {1.0 3.1 17 ------- null}
h -t 1.07657 -s 2 -d 3 -p cbr -e 210 -c 0 -i 43 -a 0 -x {1.0 3.1 -1 ------- null}
r -t 1.07733 -s 0 -d 2 -p tcp -e 1040 -c 0 -i 37 -a 0 -x {0.0 3.0 14 ------- null}
+ -t 1.07733 -s 2 -d 3 -p tcp -e 1040 -c 0 -i 37 -a 0 -x {0.0 3.0 14 ------- null}
- -t 1.07741 -s 2 -d 3 -p tcp -e 1040 -c 0 -i 32 -a 0 -x {0.0 3.0 12 ------- null}
h -t 1.07741 -s 2 -d 3 -p tcp -e 1040 -c 0 -i 32 -a 0 -x {0.0 3.0 -1 ------- null}