+ 1 0 2 tcp 40 ------- 0 0.0 3.0 0 0
- 1 0 2 tcp 40 ------- 0 0.0 3.0 0 0
+ 1 1 2 cbr 210 ------- 0 1.0 3.1 0 1
- 1 1 2 cbr 210 ------- 0 1.0 3.1 0 1
r 1.00216 0 2 tcp 40 ------- 0 0.0 3.0 0 0
+ 1.00216 2 3 tcp 40 ------- 0 0.0 3.0 0 0
- 1.00216 2 3 tcp 40 ------- 0 0.0 3.0 0 0
r 1.00284 1 2 cbr 210 ------- 0 1.0 3.1 0 1
+ 1.00284 2 3 cbr 210 ------- 0 1.0 3.1 0 1
- 1.00284 2 3 cbr 210 ------- 0 1.0 3.1 0 1
+ 1.00375 1 2 cbr 210 ------- 0 1.0 3.1 1 2
- 1.00375 1 2 cbr 210 ------- 0 1.0 3.1 1 2
r 1.00432 2 3 tcp 40 ------- 0 0.0 3.0 0 0
+ 1.00432 3 2 ack 40 ------- 0 3.0 0.0 0 3
- 1.00432 3 2 ack 40 ------- 0 3.0 0.0 0 3
r 1.00568 2 3 cbr 210 ------- 0 1.0 3.1 0 1
r 1.00648 3 2 ack 40 ------- 0 3.0 0.0 0 3
+ 1.00648 2 0 ack 40 ------- 0 3.0 0.0 0 3
- 1.00648 2 0 ack 40 ------- 0 3.0 0.0 0 3
r 1.00659 1 2 cbr 210 ------- 0 1.0 3.1 1 2
+ 1.00659 2 3 cbr 210 ------- 0 1.0 3.1 1 2
- 1.00659 2 3 cbr 210 ------- 0 1.0 3.1 1 2
+ 1.0075 1 2 cbr 210 ------- 0 1.0 3.1 2 4
- 1.0075 1 2 cbr 210 ------- 0 1.0 3.1 2 4
r 1.00864 2 0 ack 40 ------- 0 3.0 0.0 0 3
+ 1.00864 0 2 tcp 1040 ------- 0 0.0 3.0 1 5
- 1.00864 0 2 tcp 1040 ------- 0 0.0 3.0 1 5
+ 1.00864 0 2 tcp 1040 ------- 0 0.0 3.0 2 6
r 1.00943 2 3 cbr 210 ------- 0 1.0 3.1 1 2
r 1.01034 1 2 cbr 210 ------- 0 1.0 3.1 2 4
+ 1.01034 2 3 cbr 210 ------- 0 1.0 3.1 2 4
- 1.01034 2 3 cbr 210 ------- 0 1.0 3.1 2 4
+ 1.01125 1 2 cbr 210 ------- 0 1.0 3.1 3 7
- 1.01125 1 2 cbr 210 ------- 0 1.0 3.1 3 7
- 1.0128 0 2 tcp 1040 ------- 0 0.0 3.0 2 6
r 1.01318 2 3 cbr 210 ------- 0 1.0 3.1 2 4
r 1.01409 1 2 cbr 210 ------- 0 1.0 3.1 3 7
+ 1.01409 2 3 cbr 210 ------- 0 1.0 3.1 3 7
- 1.01409 2 3 cbr 210 ------- 0 1.0 3.1 3 7
r 1.0148 0 2 tcp 1040 ------- 0 0.0 3.0 1 5
+ 1.0148 2 3 tcp 1040 ------- 0 0.0 3.0 1 5
- 1.01493 2 3 tcp 1040 ------- 0 0.0 3.0 1 5
+ 1.015 1 2 cbr 210 ------- 0 1.0 3.1 4 8
- 1.015 1 2 cbr 210 ------- 0 1.0 3.1 4 8
r 1.01693 2 3 cbr 210 ------- 0 1.0 3.1 3 7
r 1.01784 1 2 cbr 210 ------- 0 1.0 3.1 4 8
+ 1.01784 2 3 cbr 210 ------- 0 1.0 3.1 4 8
+ 1.01875 1 2 cbr 210 ------- 0 1.0 3.1 5 9
- 1.01875 1 2 cbr 210 ------- 0 1.0 3.1 5 9
r 1.01896 0 2 tcp 1040 ------- 0 0.0 3.0 2 6
+ 1.01896 2 3 tcp 1040 ------- 0 0.0 3.0 2 6
- 1.01909 2 3 cbr 210 ------- 0 1.0 3.1 4 8
- 1.01993 2 3 tcp 1040 ------- 0 0.0 3.0 2 6
r 1.02109 2 3 tcp 1040 ------- 0 0.0 3.0 1 5
+ 1.02109 3 2 ack 40 ------- 0 3.0 0.0 1 10
- 1.02109 3 2 ack 40 ------- 0 3.0 0.0 1 10
r 1.02159 1 2 cbr 210 ------- 0 1.0 3.1 5 9
+ 1.02159 2 3 cbr 210 ------- 0 1.0 3.1 5 9
r 1.02193 2 3 cbr 210 ------- 0 1.0 3.1 4 8
+ 1.0225 1 2 cbr 210 ------- 0 1.0 3.1 6 11
- 1.0225 1 2 cbr 210 ------- 0 1.0 3.1 6 11
r 1.02325 3 2 ack 40 ------- 0 3.0 0.0 1 10
+ 1.02325 2 0 ack 40 ------- 0 3.0 0.0 1 10
- 1.02325 2 0 ack 40 ------- 0 3.0 0.0 1 10
- 1.02409 2 3 cbr 210 ------- 0 1.0 3.1 5 9
r 1.02534 1 2 cbr 210 ------- 0 1.0 3.1 6 11
+ 1.02534 2 3 cbr 210 ------- 0 1.0 3.1 6 11
- 1.02534 2 3 cbr 210 ------- 0 1.0 3.1 6 11
r 1.02541 2 0 ack 40 ------- 0 3.0 0.0 1 10
+ 1.02541 0 2 tcp 1040 ------- 0 0.0 3.0 3 12
- 1.02541 0 2 tcp 1040 ------- 0 0.0 3.0 3 12
+ 1.02541 0 2 tcp 1040 ------- 0 0.0 3.0 4 13
r 1.02609 2 3 tcp 1040 ------- 0 0.0 3.0 2 6
+ 1.02609 3 2 ack 40 ------- 0 3.0 0.0 2 14
- 1.02609 3 2 ack 40 ------- 0 3.0 0.0 2 14
+ 1.02625 1 2 cbr 210 ------- 0 1.0 3.1 7 15
- 1.02625 1 2 cbr 210 ------- 0 1.0 3.1 7 15
r 1.02693 2 3 cbr 210 ------- 0 1.0 3.1 5 9
r 1.02818 2 3 cbr 210 ------- 0 1.0 3.1 6 11
r 1.02825 3 2 ack 40 ------- 0 3.0 0.0 2 14
+ 1.02825 2 0 ack 40 ------- 0 3.0 0.0 2 14
- 1.02825 2 0 ack 40 ------- 0 3.0 0.0 2 14
r 1.02909 1 2 cbr 210 ------- 0 1.0 3.1 7 15
+ 1.02909 2 3 cbr 210 ------- 0 1.0 3.1 7 15
- 1.02909 2 3 cbr 210 ------- 0 1.0 3.1 7 15
- 1.02957 0 2 tcp 1040 ------- 0 0.0 3.0 4 13
+ 1.03 1 2 cbr 210 ------- 0 1.0 3.1 8 16
- 1.03 1 2 cbr 210 ------- 0 1.0 3.1 8 16
r 1.03041 2 0 ack 40 ------- 0 3.0 0.0 2 14
+ 1.03041 0 2 tcp 1040 ------- 0 0.0 3.0 5 17
+ 1.03041 0 2 tcp 1040 ------- 0 0.0 3.0 6 18
r 1.03157 0 2 tcp 1040 ------- 0 0.0 3.0 3 12
+ 1.03157 2 3 tcp 1040 ------- 0 0.0 3.0 3 12
- 1.03157 2 3 tcp 1040 ------- 0 0.0 3.0 3 12
r 1.03193 2 3 cbr 210 ------- 0 1.0 3.1 7 15
r 1.03284 1 2 cbr 210 ------- 0 1.0 3.1 8 16
+ 1.03284 2 3 cbr 210 ------- 0 1.0 3.1 8 16
- 1.03373 0 2 tcp 1040 ------- 0 0.0 3.0 5 17
+ 1.03375 1 2 cbr 210 ------- 0 1.0 3.1 9 19
- 1.03375 1 2 cbr 210 ------- 0 1.0 3.1 9 19
r 1.03573 0 2 tcp 1040 ------- 0 0.0 3.0 4 13
+ 1.03573 2 3 tcp 1040 ------- 0 0.0 3.0 4 13
- 1.03573 2 3 cbr 210 ------- 0 1.0 3.1 8 16
- 1.03657 2 3 tcp 1040 ------- 0 0.0 3.0 4 13
r 1.03659 1 2 cbr 210 ------- 0 1.0 3.1 9 19
+ 1.03659 2 3 cbr 210 ------- 0 1.0 3.1 9 19
+ 1.0375 1 2 cbr 210 ------- 0 1.0 3.1 10 20
- 1.0375 1 2 cbr 210 ------- 0 1.0 3.1 10 20
r 1.03773 2 3 tcp 1040 ------- 0 0.0 3.0 3 12
+ 1.03773 3 2 ack 40 ------- 0 3.0 0.0 3 21
- 1.03773 3 2 ack 40 ------- 0 3.0 0.0 3 21
- 1.03789 0 2 tcp 1040 ------- 0 0.0 3.0 6 18
r 1.03857 2 3 cbr 210 ------- 0 1.0 3.1 8 16
r 1.03989 0 2 tcp 1040 ------- 0 0.0 3.0 5 17
+ 1.03989 2 3 tcp 1040 ------- 0 0.0 3.0 5 17
r 1.03989 3 2 ack 40 ------- 0 3.0 0.0 3 21
+ 1.03989 2 0 ack 40 ------- 0 3.0 0.0 3 21
- 1.03989 2 0 ack 40 ------- 0 3.0 0.0 3 21
r 1.04034 1 2 cbr 210 ------- 0 1.0 3.1 10 20
+ 1.04034 2 3 cbr 210 ------- 0 1.0 3.1 10 20
- 1.04073 2 3 cbr 210 ------- 0 1.0 3.1 9 19
+ 1.04125 1 2 cbr 210 ------- 0 1.0 3.1 11 22
- 1.04125 1 2 cbr 210 ------- 0 1.0 3.1 11 22
- 1.04157 2 3 tcp 1040 ------- 0 0.0 3.0 5 17
r 1.04205 2 0 ack 40 ------- 0 3.0 0.0 3 21
+ 1.04205 0 2 tcp 1040 ------- 0 0.0 3.0 7 23
- 1.04205 0 2 tcp 1040 ------- 0 0.0 3.0 7 23
+ 1.04205 0 2 tcp 1040 ------- 0 0.0 3.0 8 24
r 1.04273 2 3 tcp 1040 ------- 0 0.0 3.0 4 13
+ 1.04273 3 2 ack 40 ------- 0 3.0 0.0 4 25
- 1.04273 3 2 ack 40 ------- 0 3.0 0.0 4 25
r 1.04357 2 3 cbr 210 ------- 0 1.0 3.1 9 19
r 1.04405 0 2 tcp 1040 ------- 0 0.0 3.0 6 18
+ 1.04405 2 3 tcp 1040 ------- 0 0.0 3.0 6 18
r 1.04409 1 2 cbr 210 ------- 0 1.0 3.1 11 22
+ 1.04409 2 3 cbr 210 ------- 0 1.0 3.1 11 22
r 1.04489 3 2 ack 40 ------- 0 3.0 0.0 4 25
+ 1.04489 2 0 ack 40 ------- 0 3.0 0.0 4 25
- 1.04489 2 0 ack 40 ------- 0 3.0 0.0 4 25
+ 1.045 1 2 cbr 210 ------- 0 1.0 3.1 12 26
- 1.045 1 2 cbr 210 ------- 0 1.0 3.1 12 26
- 1.04573 2 3 cbr 210 ------- 0 1.0 3.1 10 20
- 1.04621 0 2 tcp 1040 ------- 0 0.0 3.0 8 24
- 1.04657 2 3 tcp 1040 ------- 0 0.0 3.0 6 18
r 1.04705 2 0 ack 40 ------- 0 3.0 0.0 4 25
+ 1.04705 0 2 tcp 1040 ------- 0 0.0 3.0 9 27
+ 1.04705 0 2 tcp 1040 ------- 0 0.0 3.0 10 28
r 1.04773 2 3 tcp 1040 ------- 0 0.0 3.0 5 17
+ 1.04773 3 2 ack 40 ------- 0 3.0 0.0 5 29
- 1.04773 3 2 ack 40 ------- 0 3.0 0.0 5 29
r 1.04784 1 2 cbr 210 ------- 0 1.0 3.1 12 26
+ 1.04784 2 3 cbr 210 ------- 0 1.0 3.1 12 26
r 1.04821 0 2 tcp 1040 ------- 0 0.0 3.0 7 23
+ 1.04821 2 3 tcp 1040 ------- 0 0.0 3.0 7 23
r 1.04857 2 3 cbr 210 ------- 0 1.0 3.1 10 20
+ 1.04875 1 2 cbr 210 ------- 0 1.0 3.1 13 30
- 1.04875 1 2 cbr 210 ------- 0 1.0 3.1 13 30
r 1.04989 3 2 ack 40 ------- 0 3.0 0.0 5 29
+ 1.04989 2 0 ack 40 ------- 0 3.0 0.0 5 29
- 1.04989 2 0 ack 40 ------- 0 3.0 0.0 5 29
- 1.05037 0 2 tcp 1040 ------- 0 0.0 3.0 9 27
- 1.05073 2 3 cbr 210 ------- 0 1.0 3.1 11 22
- 1.05157 2 3 cbr 210 ------- 0 1.0 3.1 12 26
r 1.05159 1 2 cbr 210 ------- 0 1.0 3.1 13 30
+ 1.05159 2 3 cbr 210 ------- 0 1.0 3.1 13 30
r 1.05205 2 0 ack 40 ------- 0 3.0 0.0 5 29
+ 1.05205 0 2 tcp 1040 ------- 0 0.0 3.0 11 31
+ 1.05205 0 2 tcp 1040 ------- 0 0.0 3.0 12 32
r 1.05237 0 2 tcp 1040 ------- 0 0.0 3.0 8 24
+ 1.05237 2 3 tcp 1040 ------- 0 0.0 3.0 8 24
- 1.05241 2 3 tcp 1040 ------- 0 0.0 3.0 7 23
+ 1.0525 1 2 cbr 210 ------- 0 1.0 3.1 14 33
- 1.0525 1 2 cbr 210 ------- 0 1.0 3.1 14 33
r 1.05273 2 3 tcp 1040 ------- 0 0.0 3.0 6 18
+ 1.05273 3 2 ack 40 ------- 0 3.0 0.0 6 34
- 1.05273 3 2 ack 40 ------- 0 3.0 0.0 6 34
r 1.05357 2 3 cbr 210 ------- 0 1.0 3.1 11 22
r 1.05441 2 3 cbr 210 ------- 0 1.0 3.1 12 26
- 1.05453 0 2 tcp 1040 ------- 0 0.0 3.0 10 28
r 1.05489 3 2 ack 40 ------- 0 3.0 0.0 6 34
+ 1.05489 2 0 ack 40 ------- 0 3.0 0.0 6 34
- 1.05489 2 0 ack 40 ------- 0 3.0 0.0 6 34
r 1.05534 1 2 cbr 210 ------- 0 1.0 3.1 14 33
+ 1.05534 2 3 cbr 210 ------- 0 1.0 3.1 14 33
+ 1.05625 1 2 cbr 210 ------- 0 1.0 3.1 15 35
- 1.05625 1 2 cbr 210 ------- 0 1.0 3.1 15 35
r 1.05653 0 2 tcp 1040 ------- 0 0.0 3.0 9 27
+ 1.05653 2 3 tcp 1040 ------- 0 0.0 3.0 9 27
- 1.05657 2 3 cbr 210 ------- 0 1.0 3.1 13 30
r 1.05705 2 0 ack 40 ------- 0 3.0 0.0 6 34
+ 1.05705 0 2 tcp 1040 ------- 0 0.0 3.0 13 36
+ 1.05705 0 2 tcp 1040 ------- 0 0.0 3.0 14 37
- 1.05741 2 3 tcp 1040 ------- 0 0.0 3.0 8 24
r 1.05857 2 3 tcp 1040 ------- 0 0.0 3.0 7 23
+ 1.05857 3 2 ack 40 ------- 0 3.0 0.0 7 38
- 1.05857 3 2 ack 40 ------- 0 3.0 0.0 7 38
- 1.05869 0 2 tcp 1040 ------- 0 0.0 3.0 11 31
r 1.05909 1 2 cbr 210 ------- 0 1.0 3.1 15 35
+ 1.05909 2 3 cbr 210 ------- 0 1.0 3.1 15 35
r 1.05941 2 3 cbr 210 ------- 0 1.0 3.1 13 30
+ 1.06 1 2 cbr 210 ------- 0 1.0 3.1 16 39
- 1.06 1 2 cbr 210 ------- 0 1.0 3.1 16 39
r 1.06069 0 2 tcp 1040 ------- 0 0.0 3.0 10 28
+ 1.06069 2 3 tcp 1040 ------- 0 0.0 3.0 10 28
r 1.06073 3 2 ack 40 ------- 0 3.0 0.0 7 38
+ 1.06073 2 0 ack 40 ------- 0 3.0 0.0 7 38
- 1.06073 2 0 ack 40 ------- 0 3.0 0.0 7 38
- 1.06157 2 3 cbr 210 ------- 0 1.0 3.1 14 33
- 1.06241 2 3 tcp 1040 ------- 0 0.0 3.0 9 27
r 1.06284 1 2 cbr 210 ------- 0 1.0 3.1 16 39
+ 1.06284 2 3 cbr 210 ------- 0 1.0 3.1 16 39
- 1.06285 0 2 tcp 1040 ------- 0 0.0 3.0 12 32
r 1.06289 2 0 ack 40 ------- 0 3.0 0.0 7 38
+ 1.06289 0 2 tcp 1040 ------- 0 0.0 3.0 15 40
+ 1.06289 0 2 tcp 1040 ------- 0 0.0 3.0 16 41
r 1.06357 2 3 tcp 1040 ------- 0 0.0 3.0 8 24
+ 1.06357 3 2 ack 40 ------- 0 3.0 0.0 8 42
- 1.06357 3 2 ack 40 ------- 0 3.0 0.0 8 42
+ 1.06375 1 2 cbr 210 ------- 0 1.0 3.1 17 43
- 1.06375 1 2 cbr 210 ------- 0 1.0 3.1 17 43
r 1.06441 2 3 cbr 210 ------- 0 1.0 3.1 14 33
r 1.06485 0 2 tcp 1040 ------- 0 0.0 3.0 11 31
+ 1.06485 2 3 tcp 1040 ------- 0 0.0 3.0 11 31
r 1.06573 3 2 ack 40 ------- 0 3.0 0.0 8 42
+ 1.06573 2 0 ack 40 ------- 0 3.0 0.0 8 42
- 1.06573 2 0 ack 40 ------- 0 3.0 0.0 8 42
- 1.06657 2 3 cbr 210 ------- 0 1.0 3.1 15 35
r 1.06659 1 2 cbr 210 ------- 0 1.0 3.1 17 43
+ 1.06659 2 3 cbr 210 ------- 0 1.0 3.1 17 43
- 1.06701 0 2 tcp 1040 ------- 0 0.0 3.0 13 36
- 1.06741 2 3 tcp 1040 ------- 0 0.0 3.0 10 28
+ 1.0675 1 2 cbr 210 ------- 0 1.0 3.1 18 44
- 1.0675 1 2 cbr 210 ------- 0 1.0 3.1 18 44
r 1.06789 2 0 ack 40 ------- 0 3.0 0.0 8 42
+ 1.06789 0 2 tcp 1040 ------- 0 0.0 3.0 17 45
+ 1.06789 0 2 tcp 1040 ------- 0 0.0 3.0 18 46
r 1.06857 2 3 tcp 1040 ------- 0 0.0 3.0 9 27
+ 1.06857 3 2 ack 40 ------- 0 3.0 0.0 9 47
- 1.06857 3 2 ack 40 ------- 0 3.0 0.0 9 47
r 1.06901 0 2 tcp 1040 ------- 0 0.0 3.0 12 32
+ 1.06901 2 3 tcp 1040 ------- 0 0.0 3.0 12 32
r 1.06941 2 3 cbr 210 ------- 0 1.0 3.1 15 35
r 1.07034 1 2 cbr 210 ------- 0 1.0 3.1 18 44
+ 1.07034 2 3 cbr 210 ------- 0 1.0 3.1 18 44
d 1.07034 2 3 cbr 210 ------- 0 1.0 3.1 18 44
r 1.07073 3 2 ack 40 ------- 0 3.0 0.0 9 47
+ 1.07073 2 0 ack 40 ------- 0 3.0 0.0 9 47
- 1.07073 2 0 ack 40 ------- 0 3.0 0.0 9 47
- 1.07117 0 2 tcp 1040 ------- 0 0.0 3.0 14 37
+ 1.07125 1 2 cbr 210 ------- 0 1.0 3.1 19 48
- 1.07125 1 2 cbr 210 ------- 0 1.0 3.1 19 48
- 1.07157 2 3 cbr 210 ------- 0 1.0 3.1 16 39
- 1.07241 2 3 tcp 1040 ------- 0 0.0 3.0 11 31
r 1.07289 2 0 ack 40 ------- 0 3.0 0.0 9 47
+ 1.07289 0 2 tcp 1040 ------- 0 0.0 3.0 19 49
+ 1.07289 0 2 tcp 1040 ------- 0 0.0 3.0 20 50
r 1.07317 0 2 tcp 1040 ------- 0 0.0 3.0 13 36
+ 1.07317 2 3 tcp 1040 ------- 0 0.0 3.0 13 36
r 1.07357 2 3 tcp 1040 ------- 0 0.0 3.0 10 28
+ 1.07357 3 2 ack 40 ------- 0 3.0 0.0 10 51
- 1.07357 3 2 ack 40 ------- 0 3.0 0.0 10 51
r 1.07409 1 2 cbr 210 ------- 0 1.0 3.1 19 48
+ 1.07409 2 3 cbr 210 ------- 0 1.0 3.1 19 48
r 1.07441 2 3 cbr 210 ------- 0 1.0 3.1 16 39
+ 1.075 1 2 cbr 210 ------- 0 1.0 3.1 20 52
- 1.075 1 2 cbr 210 ------- 0 1.0 3.1 20 52
- 1.07533 0 2 tcp 1040 ------- 0 0.0 3.0 15 40
r 1.07573 3 2 ack 40 ------- 0 3.0 0.0 10 51
+ 1.07573 2 0 ack 40 ------- 0 3.0 0.0 10 51
- 1.07573 2 0 ack 40 ------- 0 3.0 0.0 10 51
- 1.07657 2 3 cbr 210 ------- 0 1.0 3.1 17 43
r 1.07733 0 2 tcp 1040 ------- 0 0.0 3.0 14 37
+ 1.07733 2 3 tcp 1040 ------- 0 0.0 3.0 14 37
- 1.07741 2 3 tcp 1040 ------- 0 0.0 3.0 12 32
r 1.07784 1 2 cbr 210 ------- 0 1.0 3.1 20 52
+ 1.07784 2 3 cbr 210 ------- 0 1.0 3.1 20 52
r 1.07789 2 0 ack 40 ------- 0 3.0 0.0 10 51
+ 1.07789 0 2 tcp 1040 ------- 0 0.0 3.0 21 53
+ 1.07789 0 2 tcp 1040 ------- 0 0.0 3.0 22 54
r 1.07857 2 3 tcp 1040 ------- 0 0.0 3.0 11 31
+ 1.07857 3 2 ack 40 ------- 0 3.0 0.0 11 55
- 1.07857 3 2 ack 40 ------- 0 3.0 0.0 11 55
+ 1.07875 1 2 cbr 210 ------- 0 1.0 3.1 21 56
- 1.07875 1 2 cbr 210 ------- 0 1.0 3.1 21 56
r 1.07941 2 3 cbr 210 ------- 0 1.0 3.1 17 43
- 1.07949 0 2 tcp 1040 ------- 0 0.0 3.0 16 41
r 1.08073 3 2 ack 40 ------- 0 3.0 0.0 11 55
+ 1.08073 2 0 ack 40 ------- 0 3.0 0.0 11 55
- 1.08073 2 0 ack 40 ------- 0 3.0 0.0 11 55
r 1.08149 0 2 tcp 1040 ------- 0 0.0 3.0 15 40
+ 1.08149 2 3 tcp 1040 ------- 0 0.0 3.0 15 40
d 1.08149 2 3 tcp 1040 ------- 0 0.0 3.0 15 40
- 1.08157 2 3 tcp 1040 ------- 0 0.0 3.0 13 36
r 1.08159 1 2 cbr 210 ------- 0 1.0 3.1 21 56
+ 1.08159 2 3 cbr 210 ------- 0 1.0 3.1 21 56
+ 1.0825 1 2 cbr 210 ------- 0 1.0 3.1 22 57
- 1.0825 1 2 cbr 210 ------- 0 1.0 3.1 22 57
r 1.08289 2 0 ack 40 ------- 0 3.0 0.0 11 55
+ 1.08289 0 2 tcp 1040 ------- 0 0.0 3.0 23 58
+ 1.08289 0 2 tcp 1040 ------- 0 0.0 3.0 24 59
r 1.08357 2 3 tcp 1040 ------- 0 0.0 3.0 12 32
+ 1.08357 3 2 ack 40 ------- 0 3.0 0.0 12 60
- 1.08357 3 2 ack 40 ------- 0 3.0 0.0 12 60
- 1.08365 0 2 tcp 1040 ------- 0 0.0 3.0 17 45
r 1.08534 1 2 cbr 210 ------- 0 1.0 3.1 22 57
+ 1.08534 2 3 cbr 210 ------- 0 1.0 3.1 22 57
d 1.08534 2 3 cbr 210 ------- 0 1.0 3.1 22 57
r 1.08565 0 2 tcp 1040 ------- 0 0.0 3.0 16 41
+ 1.08565 2 3 tcp 1040 ------- 0 0.0 3.0 16 41
d 1.08565 2 3 tcp 1040 ------- 0 0.0 3.0 16 41
- 1.08573 2 3 cbr 210 ------- 0 1.0 3.1 19 48
r 1.08573 3 2 ack 40 ------- 0 3.0 0.0 12 60
+ 1.08573 2 0 ack 40 ------- 0 3.0 0.0 12 60
- 1.08573 2 0 ack 40 ------- 0 3.0 0.0 12 60
+ 1.08625 1 2 cbr 210 ------- 0 1.0 3.1 23 61
- 1.08625 1 2 cbr 210 ------- 0 1.0 3.1 23 61
- 1.08657 2 3 tcp 1040 ------- 0 0.0 3.0 14 37
r 1.08773 2 3 tcp 1040 ------- 0 0.0 3.0 13 36
+ 1.08773 3 2 ack 40 ------- 0 3.0 0.0 13 62
- 1.08773 3 2 ack 40 ------- 0 3.0 0.0 13 62
- 1.08781 0 2 tcp 1040 ------- 0 0.0 3.0 18 46
r 1.08789 2 0 ack 40 ------- 0 3.0 0.0 12 60
+ 1.08789 0 2 tcp 1040 ------- 0 0.0 3.0 25 63
+ 1.08789 0 2 tcp 1040 ------- 0 0.0 3.0 26 64
r 1.08857 2 3 cbr 210 ------- 0 1.0 3.1 19 48
r 1.08909 1 2 cbr 210 ------- 0 1.0 3.1 23 61
+ 1.08909 2 3 cbr 210 ------- 0 1.0 3.1 23 61
r 1.08981 0 2 tcp 1040 ------- 0 0.0 3.0 17 45
+ 1.08981 2 3 tcp 1040 ------- 0 0.0 3.0 17 45
r 1.08989 3 2 ack 40 ------- 0 3.0 0.0 13 62
+ 1.08989 2 0 ack 40 ------- 0 3.0 0.0 13 62
- 1.08989 2 0 ack 40 ------- 0 3.0 0.0 13 62
+ 1.09 1 2 cbr 210 ------- 0 1.0 3.1 24 65
- 1.09 1 2 cbr 210 ------- 0 1.0 3.1 24 65
- 1.09073 2 3 cbr 210 ------- 0 1.0 3.1 20 52
- 1.09157 2 3 cbr 210 ------- 0 1.0 3.1 21 56
- 1.09197 0 2 tcp 1040 ------- 0 0.0 3.0 19 49
r 1.09205 2 0 ack 40 ------- 0 3.0 0.0 13 62
+ 1.09205 0 2 tcp 1040 ------- 0 0.0 3.0 27 66
+ 1.09205 0 2 tcp 1040 ------- 0 0.0 3.0 28 67
- 1.09241 2 3 cbr 210 ------- 0 1.0 3.1 23 61
r 1.09273 2 3 tcp 1040 ------- 0 0.0 3.0 14 37
+ 1.09273 3 2 ack 40 ------- 0 3.0 0.0 14 68
- 1.09273 3 2 ack 40 ------- 0 3.0 0.0 14 68
r 1.09284 1 2 cbr 210 ------- 0 1.0 3.1 24 65
+ 1.09284 2 3 cbr 210 ------- 0 1.0 3.1 24 65
- 1.09325 2 3 tcp 1040 ------- 0 0.0 3.0 17 45
r 1.09357 2 3 cbr 210 ------- 0 1.0 3.1 20 52
+ 1.09375 1 2 cbr 210 ------- 0 1.0 3.1 25 69
- 1.09375 1 2 cbr 210 ------- 0 1.0 3.1 25 69
r 1.09397 0 2 tcp 1040 ------- 0 0.0 3.0 18 46
+ 1.09397 2 3 tcp 1040 ------- 0 0.0 3.0 18 46
r 1.09441 2 3 cbr 210 ------- 0 1.0 3.1 21 56
r 1.09489 3 2 ack 40 ------- 0 3.0 0.0 14 68
+ 1.09489 2 0 ack 40 ------- 0 3.0 0.0 14 68
- 1.09489 2 0 ack 40 ------- 0 3.0 0.0 14 68
r 1.09525 2 3 cbr 210 ------- 0 1.0 3.1 23 61
- 1.09613 0 2 tcp 1040 ------- 0 0.0 3.0 20 50
r 1.09659 1 2 cbr 210 ------- 0 1.0 3.1 25 69
+ 1.09659 2 3 cbr 210 ------- 0 1.0 3.1 25 69
r 1.09705 2 0 ack 40 ------- 0 3.0 0.0 14 68
+ 1.09705 0 2 tcp 1040 ------- 0 0.0 3.0 29 70
+ 1.09705 0 2 tcp 1040 ------- 0 0.0 3.0 30 71
- 1.09741 2 3 cbr 210 ------- 0 1.0 3.1 24 65
+ 1.0975 1 2 cbr 210 ------- 0 1.0 3.1 26 72
- 1.0975 1 2 cbr 210 ------- 0 1.0 3.1 26 72
r 1.09813 0 2 tcp 1040 ------- 0 0.0 3.0 19 49
+ 1.09813 2 3 tcp 1040 ------- 0 0.0 3.0 19 49
- 1.09825 2 3 tcp 1040 ------- 0 0.0 3.0 18 46
r 1.09941 2 3 tcp 1040 ------- 0 0.0 3.0 17 45
+ 1.09941 3 2 ack 40 ------- 0 3.0 0.0 14 73
- 1.09941 3 2 ack 40 ------- 0 3.0 0.0 14 73
r 1.10025 2 3 cbr 210 ------- 0 1.0 3.1 24 65
- 1.10029 0 2 tcp 1040 ------- 0 0.0 3.0 21 53
r 1.10034 1 2 cbr 210 ------- 0 1.0 3.1 26 72
+ 1.10034 2 3 cbr 210 ------- 0 1.0 3.1 26 72
+ 1.10125 1 2 cbr 210 ------- 0 1.0 3.1 27 74
- 1.10125 1 2 cbr 210 ------- 0 1.0 3.1 27 74
r 1.10157 3 2 ack 40 ------- 0 3.0 0.0 14 73
+ 1.10157 2 0 ack 40 ------- 0 3.0 0.0 14 73
- 1.10157 2 0 ack 40 ------- 0 3.0 0.0 14 73
r 1.10229 0 2 tcp 1040 ------- 0 0.0 3.0 20 50
+ 1.10229 2 3 tcp 1040 ------- 0 0.0 3.0 20 50
- 1.10241 2 3 cbr 210 ------- 0 1.0 3.1 25 69
- 1.10325 2 3 tcp 1040 ------- 0 0.0 3.0 19 49
r 1.10373 2 0 ack 40 ------- 0 3.0 0.0 14 73
+ 1.10373 0 2 tcp 1040 ------- 0 0.0 3.0 31 75
r 1.10409 1 2 cbr 210 ------- 0 1.0 3.1 27 74
+ 1.10409 2 3 cbr 210 ------- 0 1.0 3.1 27 74
r 1.10441 2 3 tcp 1040 ------- 0 0.0 3.0 18 46
+ 1.10441 3 2 ack 40 ------- 0 3.0 0.0 14 76
- 1.10441 3 2 ack 40 ------- 0 3.0 0.0 14 76
- 1.10445 0 2 tcp 1040 ------- 0 0.0 3.0 22 54
+ 1.105 1 2 cbr 210 ------- 0 1.0 3.1 28 77
- 1.105 1 2 cbr 210 ------- 0 1.0 3.1 28 77
r 1.10525 2 3 cbr 210 ------- 0 1.0 3.1 25 69
r 1.10645 0 2 tcp 1040 ------- 0 0.0 3.0 21 53
+ 1.10645 2 3 tcp 1040 ------- 0 0.0 3.0 21 53
r 1.10657 3 2 ack 40 ------- 0 3.0 0.0 14 76
+ 1.10657 2 0 ack 40 ------- 0 3.0 0.0 14 76
- 1.10657 2 0 ack 40 ------- 0 3.0 0.0 14 76
- 1.10741 2 3 cbr 210 ------- 0 1.0 3.1 26 72
r 1.10784 1 2 cbr 210 ------- 0 1.0 3.1 28 77
+ 1.10784 2 3 cbr 210 ------- 0 1.0 3.1 28 77
- 1.10825 2 3 tcp 1040 ------- 0 0.0 3.0 20 50
- 1.10861 0 2 tcp 1040 ------- 0 0.0 3.0 23 58
r 1.10873 2 0 ack 40 ------- 0 3.0 0.0 14 76
+ 1.10873 0 2 tcp 1040 ------- 0 0.0 3.0 32 78
+ 1.10875 1 2 cbr 210 ------- 0 1.0 3.1 29 79
- 1.10875 1 2 cbr 210 ------- 0 1.0 3.1 29 79
r 1.10941 2 3 tcp 1040 ------- 0 0.0 3.0 19 49
+ 1.10941 3 2 ack 40 ------- 0 3.0 0.0 14 80
- 1.10941 3 2 ack 40 ------- 0 3.0 0.0 14 80
r 1.11025 2 3 cbr 210 ------- 0 1.0 3.1 26 72
r 1.11061 0 2 tcp 1040 ------- 0 0.0 3.0 22 54
+ 1.11061 2 3 tcp 1040 ------- 0 0.0 3.0 22 54
r 1.11157 3 2 ack 40 ------- 0 3.0 0.0 14 80
+ 1.11157 2 0 ack 40 ------- 0 3.0 0.0 14 80
- 1.11157 2 0 ack 40 ------- 0 3.0 0.0 14 80
r 1.11159 1 2 cbr 210 ------- 0 1.0 3.1 29 79
+ 1.11159 2 3 cbr 210 ------- 0 1.0 3.1 29 79
d 1.11159 2 3 cbr 210 ------- 0 1.0 3.1 29 79
- 1.11241 2 3 cbr 210 ------- 0 1.0 3.1 27 74
+ 1.1125 1 2 cbr 210 ------- 0 1.0 3.1 30 81
- 1.1125 1 2 cbr 210 ------- 0 1.0 3.1 30 81
- 1.11277 0 2 tcp 1040 ------- 0 0.0 3.0 24 59
- 1.11325 2 3 tcp 1040 ------- 0 0.0 3.0 21 53
r 1.11373 2 0 ack 40 ------- 0 3.0 0.0 14 80
+ 1.11373 0 2 tcp 1040 ---A--- 0 0.0 3.0 15 82
r 1.11441 2 3 tcp 1040 ------- 0 0.0 3.0 20 50
+ 1.11441 3 2 ack 40 ------- 0 3.0 0.0 14 83
- 1.11441 3 2 ack 40 ------- 0 3.0 0.0 14 83
r 1.11477 0 2 tcp 1040 ------- 0 0.0 3.0 23 58
+ 1.11477 2 3 tcp 1040 ------- 0 0.0 3.0 23 58
r 1.11525 2 3 cbr 210 ------- 0 1.0 3.1 27 74
r 1.11534 1 2 cbr 210 ------- 0 1.0 3.1 30 81
+ 1.11534 2 3 cbr 210 ------- 0 1.0 3.1 30 81
+ 1.11625 1 2 cbr 210 ------- 0 1.0 3.1 31 84
- 1.11625 1 2 cbr 210 ------- 0 1.0 3.1 31 84
r 1.11657 3 2 ack 40 ------- 0 3.0 0.0 14 83
+ 1.11657 2 0 ack 40 ------- 0 3.0 0.0 14 83
- 1.11657 2 0 ack 40 ------- 0 3.0 0.0 14 83
- 1.11693 0 2 tcp 1040 ------- 0 0.0 3.0 25 63
- 1.11741 2 3 cbr 210 ------- 0 1.0 3.1 28 77
- 1.11825 2 3 tcp 1040 ------- 0 0.0 3.0 22 54
r 1.11873 2 0 ack 40 ------- 0 3.0 0.0 14 83
r 1.11893 0 2 tcp 1040 ------- 0 0.0 3.0 24 59
+ 1.11893 2 3 tcp 1040 ------- 0 0.0 3.0 24 59
r 1.11909 1 2 cbr 210 ------- 0 1.0 3.1 31 84
+ 1.11909 2 3 cbr 210 ------- 0 1.0 3.1 31 84
r 1.11941 2 3 tcp 1040 ------- 0 0.0 3.0 21 53
+ 1.11941 3 2 ack 40 ------- 0 3.0 0.0 14 85
- 1.11941 3 2 ack 40 ------- 0 3.0 0.0 14 85
+ 1.12 1 2 cbr 210 ------- 0 1.0 3.1 32 86
- 1.12 1 2 cbr 210 ------- 0 1.0 3.1 32 86
r 1.12025 2 3 cbr 210 ------- 0 1.0 3.1 28 77
- 1.12109 0 2 tcp 1040 ------- 0 0.0 3.0 26 64
r 1.12157 3 2 ack 40 ------- 0 3.0 0.0 14 85
+ 1.12157 2 0 ack 40 ------- 0 3.0 0.0 14 85
- 1.12157 2 0 ack 40 ------- 0 3.0 0.0 14 85
- 1.12241 2 3 tcp 1040 ------- 0 0.0 3.0 23 58
r 1.12284 1 2 cbr 210 ------- 0 1.0 3.1 32 86
+ 1.12284 2 3 cbr 210 ------- 0 1.0 3.1 32 86
r 1.12309 0 2 tcp 1040 ------- 0 0.0 3.0 25 63
+ 1.12309 2 3 tcp 1040 ------- 0 0.0 3.0 25 63
d 1.12309 2 3 tcp 1040 ------- 0 0.0 3.0 25 63
r 1.12373 2 0 ack 40 ------- 0 3.0 0.0 14 85
+ 1.12375 1 2 cbr 210 ------- 0 1.0 3.1 33 87
- 1.12375 1 2 cbr 210 ------- 0 1.0 3.1 33 87
r 1.12441 2 3 tcp 1040 ------- 0 0.0 3.0 22 54
+ 1.12441 3 2 ack 40 ------- 0 3.0 0.0 14 88
- 1.12441 3 2 ack 40 ------- 0 3.0 0.0 14 88
- 1.12525 0 2 tcp 1040 ------- 0 0.0 3.0 27 66
- 1.12657 2 3 cbr 210 ------- 0 1.0 3.1 30 81
r 1.12657 3 2 ack 40 ------- 0 3.0 0.0 14 88
+ 1.12657 2 0 ack 40 ------- 0 3.0 0.0 14 88
- 1.12657 2 0 ack 40 ------- 0 3.0 0.0 14 88
r 1.12659 1 2 cbr 210 ------- 0 1.0 3.1 33 87
+ 1.12659 2 3 cbr 210 ------- 0 1.0 3.1 33 87
r 1.12725 0 2 tcp 1040 ------- 0 0.0 3.0 26 64
+ 1.12725 2 3 tcp 1040 ------- 0 0.0 3.0 26 64
d 1.12725 2 3 tcp 1040 ------- 0 0.0 3.0 26 64
- 1.12741 2 3 tcp 1040 ------- 0 0.0 3.0 24 59
+ 1.1275 1 2 cbr 210 ------- 0 1.0 3.1 34 89
- 1.1275 1 2 cbr 210 ------- 0 1.0 3.1 34 89
r 1.12857 2 3 tcp 1040 ------- 0 0.0 3.0 23 58
+ 1.12857 3 2 ack 40 ------- 0 3.0 0.0 14 90
- 1.12857 3 2 ack 40 ------- 0 3.0 0.0 14 90
r 1.12873 2 0 ack 40 ------- 0 3.0 0.0 14 88
r 1.12941 2 3 cbr 210 ------- 0 1.0 3.1 30 81
- 1.12941 0 2 tcp 1040 ------- 0 0.0 3.0 28 67
r 1.13034 1 2 cbr 210 ------- 0 1.0 3.1 34 89
+ 1.13034 2 3 cbr 210 ------- 0 1.0 3.1 34 89
r 1.13073 3 2 ack 40 ------- 0 3.0 0.0 14 90
+ 1.13073 2 0 ack 40 ------- 0 3.0 0.0 14 90
- 1.13073 2 0 ack 40 ------- 0 3.0 0.0 14 90
+ 1.13125 1 2 cbr 210 ------- 0 1.0 3.1 35 91
- 1.13125 1 2 cbr 210 ------- 0 1.0 3.1 35 91
r 1.13141 0 2 tcp 1040 ------- 0 0.0 3.0 27 66
+ 1.13141 2 3 tcp 1040 ------- 0 0.0 3.0 27 66
d 1.13141 2 3 tcp 1040 ------- 0 0.0 3.0 27 66
- 1.13157 2 3 cbr 210 ------- 0 1.0 3.1 31 84
- 1.13241 2 3 cbr 210 ------- 0 1.0 3.1 32 86
r 1.13289 2 0 ack 40 ------- 0 3.0 0.0 14 90
- 1.13325 2 3 cbr 210 ------- 0 1.0 3.1 33 87
r 1.13357 2 3 tcp 1040 ------- 0 0.0 3.0 24 59
+ 1.13357 3 2 ack 40 ------- 0 3.0 0.0 14 92
- 1.13357 3 2 ack 40 ------- 0 3.0 0.0 14 92
- 1.13357 0 2 tcp 1040 ------- 0 0.0 3.0 29 70
r 1.13409 1 2 cbr 210 ------- 0 1.0 3.1 35 91
+ 1.13409 2 3 cbr 210 ------- 0 1.0 3.1 35 91
- 1.13409 2 3 cbr 210 ------- 0 1.0 3.1 34 89
r 1.13441 2 3 cbr 210 ------- 0 1.0 3.1 31 84
- 1.13493 2 3 cbr 210 ------- 0 1.0 3.1 35 91
+ 1.135 1 2 cbr 210 ------- 0 1.0 3.1 36 93
- 1.135 1 2 cbr 210 ------- 0 1.0 3.1 36 93
r 1.13525 2 3 cbr 210 ------- 0 1.0 3.1 32 86
r 1.13557 0 2 tcp 1040 ------- 0 0.0 3.0 28 67
+ 1.13557 2 3 tcp 1040 ------- 0 0.0 3.0 28 67
r 1.13573 3 2 ack 40 ------- 0 3.0 0.0 14 92
+ 1.13573 2 0 ack 40 ------- 0 3.0 0.0 14 92
- 1.13573 2 0 ack 40 ------- 0 3.0 0.0 14 92
- 1.13577 2 3 tcp 1040 ------- 0 0.0 3.0 28 67
r 1.13609 2 3 cbr 210 ------- 0 1.0 3.1 33 87
r 1.13693 2 3 cbr 210 ------- 0 1.0 3.1 34 89
- 1.13773 0 2 tcp 1040 ------- 0 0.0 3.0 30 71
r 1.13777 2 3 cbr 210 ------- 0 1.0 3.1 35 91
r 1.13784 1 2 cbr 210 ------- 0 1.0 3.1 36 93
+ 1.13784 2 3 cbr 210 ------- 0 1.0 3.1 36 93
r 1.13789 2 0 ack 40 ------- 0 3.0 0.0 14 92
+ 1.13875 1 2 cbr 210 ------- 0 1.0 3.1 37 94
- 1.13875 1 2 cbr 210 ------- 0 1.0 3.1 37 94
r 1.13973 0 2 tcp 1040 ------- 0 0.0 3.0 29 70
+ 1.13973 2 3 tcp 1040 ------- 0 0.0 3.0 29 70
- 1.13993 2 3 cbr 210 ------- 0 1.0 3.1 36 93
- 1.14077 2 3 tcp 1040 ------- 0 0.0 3.0 29 70
r 1.14159 1 2 cbr 210 ------- 0 1.0 3.1 37 94
+ 1.14159 2 3 cbr 210 ------- 0 1.0 3.1 37 94
- 1.14189 0 2 tcp 1040 ------- 0 0.0 3.0 31 75
r 1.14193 2 3 tcp 1040 ------- 0 0.0 3.0 28 67
+ 1.14193 3 2 ack 40 ------- 0 3.0 0.0 14 95
- 1.14193 3 2 ack 40 ------- 0 3.0 0.0 14 95
+ 1.1425 1 2 cbr 210 ------- 0 1.0 3.1 38 96
- 1.1425 1 2 cbr 210 ------- 0 1.0 3.1 38 96
r 1.14277 2 3 cbr 210 ------- 0 1.0 3.1 36 93
r 1.14389 0 2 tcp 1040 ------- 0 0.0 3.0 30 71
+ 1.14389 2 3 tcp 1040 ------- 0 0.0 3.0 30 71
r 1.14409 3 2 ack 40 ------- 0 3.0 0.0 14 95
+ 1.14409 2 0 ack 40 ------- 0 3.0 0.0 14 95
- 1.14409 2 0 ack 40 ------- 0 3.0 0.0 14 95
- 1.14493 2 3 cbr 210 ------- 0 1.0 3.1 37 94
r 1.14534 1 2 cbr 210 ------- 0 1.0 3.1 38 96
+ 1.14534 2 3 cbr 210 ------- 0 1.0 3.1 38 96
- 1.14577 2 3 tcp 1040 ------- 0 0.0 3.0 30 71
- 1.14605 0 2 tcp 1040 ------- 0 0.0 3.0 32 78
+ 1.14625 1 2 cbr 210 ------- 0 1.0 3.1 39 97
- 1.14625 1 2 cbr 210 ------- 0 1.0 3.1 39 97
r 1.14625 2 0 ack 40 ------- 0 3.0 0.0 14 95
r 1.14693 2 3 tcp 1040 ------- 0 0.0 3.0 29 70
+ 1.14693 3 2 ack 40 ------- 0 3.0 0.0 14 98
- 1.14693 3 2 ack 40 ------- 0 3.0 0.0 14 98
r 1.14777 2 3 cbr 210 ------- 0 1.0 3.1 37 94
r 1.14805 0 2 tcp 1040 ------- 0 0.0 3.0 31 75
+ 1.14805 2 3 tcp 1040 ------- 0 0.0 3.0 31 75
r 1.14909 1 2 cbr 210 ------- 0 1.0 3.1 39 97
+ 1.14909 2 3 cbr 210 ------- 0 1.0 3.1 39 97
r 1.14909 3 2 ack 40 ------- 0 3.0 0.0 14 98
+ 1.14909 2 0 ack 40 ------- 0 3.0 0.0 14 98
- 1.14909 2 0 ack 40 ------- 0 3.0 0.0 14 98
- 1.14993 2 3 cbr 210 ------- 0 1.0 3.1 38 96
+ 1.15 1 2 cbr 210 ------- 0 1.0 3.1 40 99
- 1.15 1 2 cbr 210 ------- 0 1.0 3.1 40 99
- 1.15021 0 2 tcp 1040 ---A--- 0 0.0 3.0 15 82
- 1.15077 2 3 tcp 1040 ------- 0 0.0 3.0 31 75
r 1.15125 2 0 ack 40 ------- 0 3.0 0.0 14 98
r 1.15193 2 3 tcp 1040 ------- 0 0.0 3.0 30 71
+ 1.15193 3 2 ack 40 ------- 0 3.0 0.0 14 100
- 1.15193 3 2 ack 40 ------- 0 3.0 0.0 14 100
r 1.15221 0 2 tcp 1040 ------- 0 0.0 3.0 32 78
+ 1.15221 2 3 tcp 1040 ------- 0 0.0 3.0 32 78
r 1.15277 2 3 cbr 210 ------- 0 1.0 3.1 38 96
r 1.15284 1 2 cbr 210 ------- 0 1.0 3.1 40 99
+ 1.15284 2 3 cbr 210 ------- 0 1.0 3.1 40 99
+ 1.15375 1 2 cbr 210 ------- 0 1.0 3.1 41 101
- 1.15375 1 2 cbr 210 ------- 0 1.0 3.1 41 101
r 1.15409 3 2 ack 40 ------- 0 3.0 0.0 14 100
+ 1.15409 2 0 ack 40 ------- 0 3.0 0.0 14 100
- 1.15409 2 0 ack 40 ------- 0 3.0 0.0 14 100
- 1.15493 2 3 cbr 210 ------- 0 1.0 3.1 39 97
- 1.15577 2 3 tcp 1040 ------- 0 0.0 3.0 32 78
r 1.15625 2 0 ack 40 ------- 0 3.0 0.0 14 100
r 1.15637 0 2 tcp 1040 ---A--- 0 0.0 3.0 15 82
+ 1.15637 2 3 tcp 1040 ---A--- 0 0.0 3.0 15 82
r 1.15659 1 2 cbr 210 ------- 0 1.0 3.1 41 101
+ 1.15659 2 3 cbr 210 ------- 0 1.0 3.1 41 101
r 1.15693 2 3 tcp 1040 ------- 0 0.0 3.0 31 75
+ 1.15693 3 2 ack 40 ------- 0 3.0 0.0 14 102
- 1.15693 3 2 ack 40 ------- 0 3.0 0.0 14 102
+ 1.1575 1 2 cbr 210 ------- 0 1.0 3.1 42 103
- 1.1575 1 2 cbr 210 ------- 0 1.0 3.1 42 103
r 1.15777 2 3 cbr 210 ------- 0 1.0 3.1 39 97
r 1.15909 3 2 ack 40 ------- 0 3.0 0.0 14 102
+ 1.15909 2 0 ack 40 ------- 0 3.0 0.0 14 102
- 1.15909 2 0 ack 40 ------- 0 3.0 0.0 14 102
- 1.15993 2 3 cbr 210 ------- 0 1.0 3.1 40 99
r 1.16034 1 2 cbr 210 ------- 0 1.0 3.1 42 103
+ 1.16034 2 3 cbr 210 ------- 0 1.0 3.1 42 103
- 1.16077 2 3 tcp 1040 ---A--- 0 0.0 3.0 15 82
+ 1.16125 1 2 cbr 210 ------- 0 1.0 3.1 43 104
- 1.16125 1 2 cbr 210 ------- 0 1.0 3.1 43 104
r 1.16125 2 0 ack 40 ------- 0 3.0 0.0 14 102
r 1.16193 2 3 tcp 1040 ------- 0 0.0 3.0 32 78
+ 1.16193 3 2 ack 40 ------- 0 3.0 0.0 14 105
- 1.16193 3 2 ack 40 ------- 0 3.0 0.0 14 105
r 1.16277 2 3 cbr 210 ------- 0 1.0 3.1 40 99
r 1.16409 1 2 cbr 210 ------- 0 1.0 3.1 43 104
+ 1.16409 2 3 cbr 210 ------- 0 1.0 3.1 43 104
r 1.16409 3 2 ack 40 ------- 0 3.0 0.0 14 105
+ 1.16409 2 0 ack 40 ------- 0 3.0 0.0 14 105
- 1.16409 2 0 ack 40 ------- 0 3.0 0.0 14 105
- 1.16493 2 3 cbr 210 ------- 0 1.0 3.1 41 101
+ 1.165 1 2 cbr 210 ------- 0 1.0 3.1 44 106
- 1.165 1 2 cbr 210 ------- 0 1.0 3.1 44 106
- 1.16577 2 3 cbr 210 ------- 0 1.0 3.1 42 103
r 1.16625 2 0 ack 40 ------- 0 3.0 0.0 14 105
- 1.16661 2 3 cbr 210 ------- 0 1.0 3.1 43 104
r 1.16693 2 3 tcp 1040 ---A--- 0 0.0 3.0 15 82
+ 1.16693 3 2 ack 40 ------- 0 3.0 0.0 15 107
- 1.16693 3 2 ack 40 ------- 0 3.0 0.0 15 107
r 1.16777 2 3 cbr 210 ------- 0 1.0 3.1 41 101
r 1.16784 1 2 cbr 210 ------- 0 1.0 3.1 44 106
+ 1.16784 2 3 cbr 210 ------- 0 1.0 3.1 44 106
- 1.16784 2 3 cbr 210 ------- 0 1.0 3.1 44 106
r 1.16861 2 3 cbr 210 ------- 0 1.0 3.1 42 103
+ 1.16875 1 2 cbr 210 ------- 0 1.0 3.1 45 108
- 1.16875 1 2 cbr 210 ------- 0 1.0 3.1 45 108
r 1.16909 3 2 ack 40 ------- 0 3.0 0.0 15 107
+ 1.16909 2 0 ack 40 ------- 0 3.0 0.0 15 107
- 1.16909 2 0 ack 40 ------- 0 3.0 0.0 15 107
r 1.16945 2 3 cbr 210 ------- 0 1.0 3.1 43 104
r 1.17068 2 3 cbr 210 ------- 0 1.0 3.1 44 106
r 1.17125 2 0 ack 40 ------- 0 3.0 0.0 15 107
+ 1.17125 0 2 tcp 1040 ------- 0 0.0 3.0 16 109
- 1.17125 0 2 tcp 1040 ------- 0 0.0 3.0 16 109
+ 1.17125 0 2 tcp 1040 ------- 0 0.0 3.0 17 110
r 1.17159 1 2 cbr 210 ------- 0 1.0 3.1 45 108
+ 1.17159 2 3 cbr 210 ------- 0 1.0 3.1 45 108
- 1.17159 2 3 cbr 210 ------- 0 1.0 3.1 45 108
+ 1.1725 1 2 cbr 210 ------- 0 1.0 3.1 46 111
- 1.1725 1 2 cbr 210 ------- 0 1.0 3.1 46 111
r 1.17443 2 3 cbr 210 ------- 0 1.0 3.1 45 108
r 1.17534 1 2 cbr 210 ------- 0 1.0 3.1 46 111
+ 1.17534 2 3 cbr 210 ------- 0 1.0 3.1 46 111
- 1.17534 2 3 cbr 210 ------- 0 1.0 3.1 46 111
- 1.17541 0 2 tcp 1040 ------- 0 0.0 3.0 17 110
+ 1.17625 1 2 cbr 210 ------- 0 1.0 3.1 47 112
- 1.17625 1 2 cbr 210 ------- 0 1.0 3.1 47 112