s 0.029290548 _1_ RTR  --- 0 message 32 [0 0 0 0] ------- [1:255 -1:255 32 0] 
s 0.029365548 _1_ MAC  --- 0 message 90 [0 ffffffff 1 800] ------- [1:255 -1:255 32 0] 
r 0.030085548 _0_ MAC  --- 0 message 32 [0 ffffffff 1 800] ------- [1:255 -1:255 32 0] 
r 0.030110548 _0_ RTR  --- 0 message 32 [0 ffffffff 1 800] ------- [1:255 -1:255 32 0] 
s 1.000000000 _0_ AGT  --- 1 tcp 40 [0 0 0 0] ------- [0:0 1:0 32 0] [0 0] 0 0
r 1.000000000 _0_ RTR  --- 1 tcp 40 [0 0 0 0] ------- [0:0 1:0 32 0] [0 0] 0 0
s 1.000000000 _0_ RTR  --- 1 tcp 60 [0 0 0 0] ------- [0:0 1:0 32 1] [0 0] 0 0
s 1.000255000 _0_ MAC  --- 0 ARP 86 [0 ffffffff 0 806] ------- [REQUEST 0/0 0/1]
r 1.000943000 _1_ MAC  --- 0 ARP 28 [0 ffffffff 0 806] ------- [REQUEST 0/0 0/1]
s 1.001358000 _1_ MAC  --- 0 RTS 44 [52e 0 1 0] 
r 1.001710000 _0_ MAC  --- 0 RTS 44 [52e 0 1 0] 
s 1.001720000 _0_ MAC  --- 0 CTS 38 [3f4 1 0 0] 
r 1.002024000 _1_ MAC  --- 0 CTS 38 [3f4 1 0 0] 
s 1.002034000 _1_ MAC  --- 0 ARP 86 [13a 0 1 806] ------- [REPLY 1/1 0/0]
r 1.002722000 _0_ MAC  --- 0 ARP 28 [13a 0 1 806] ------- [REPLY 1/1 0/0]
s 1.002732000 _0_ MAC  --- 0 ACK 38 [0 1 0 0] 
r 1.003036000 _1_ MAC  --- 0 ACK 38 [0 1 0 0] 
s 1.003346000 _0_ MAC  --- 0 RTS 44 [62e 1 0 0] 
r 1.003698000 _1_ MAC  --- 0 RTS 44 [62e 1 0 0] 
s 1.003708000 _1_ MAC  --- 0 CTS 38 [4f4 0 0 0] 
r 1.004012000 _0_ MAC  --- 0 CTS 38 [4f4 0 0 0] 
s 1.004022000 _0_ MAC  --- 1 tcp 118 [13a 1 0 800] ------- [0:0 1:0 32 1] [0 0] 0 0
r 1.004966000 _1_ MAC  --- 1 tcp 60 [13a 1 0 800] ------- [0:0 1:0 32 1] [0 0] 1 0
s 1.004976000 _1_ MAC  --- 0 ACK 38 [0 0 0 0] 
r 1.004991000 _1_ AGT  --- 1 tcp 60 [13a 1 0 800] ------- [0:0 1:0 32 1] [0 0] 1 0
s 1.004991000 _1_ AGT  --- 2 ack 40 [0 0 0 0] ------- [1:0 0:0 32 0] [0 0] 0 0
r 1.004991000 _1_ RTR  --- 2 ack 40 [0 0 0 0] ------- [1:0 0:0 32 0] [0 0] 0 0
r 1.005280000 _0_ MAC  --- 0 ACK 38 [0 0 0 0] 
M 1.10000 0 (0.00, 0.00, 0.00), (100.00, 100.00), 20.00
M 1.10000 1 (0.00, 0.00, 0.00), (300.00, 100.00), 20.00
s 1.112189378 _0_ RTR  --- 3 message 32 [0 0 0 0] ------- [0:255 -1:255 32 0] 
s 1.112624378 _0_ MAC  --- 3 message 90 [0 ffffffff 0 800] ------- [0:255 -1:255 32 0] 
r 1.113344378 _1_ MAC  --- 3 message 32 [0 ffffffff 0 800] ------- [0:255 -1:255 32 0] 
r 1.113369378 _1_ RTR  --- 3 message 32 [0 ffffffff 0 800] ------- [0:255 -1:255 32 0] 
s 1.113369378 _1_ RTR  --- 2 ack 80 [0 0 0 0] ------- [1:0 0:0 32 0] [0 0] 0 0
s 1.113604378 _1_ MAC  --- 0 RTS 44 [6ce 0 1 0] 
r 1.113956378 _0_ MAC  --- 0 RTS 44 [6ce 0 1 0] 
s 1.113966378 _0_ MAC  --- 0 CTS 38 [594 1 0 0] 
r 1.114270379 _1_ MAC  --- 0 CTS 38 [594 1 0 0] 
s 1.114280379 _1_ MAC  --- 2 ack 138 [13a 0 1 800] ------- [1:0 0:0 32 0] [0 0] 0 0
r 1.115384379 _0_ MAC  --- 2 ack 80 [13a 0 1 800] ------- [1:0 0:0 32 0] [0 0] 1 0
s 1.115394379 _0_ MAC  --- 0 ACK 38 [0 1 0 0] 
r 1.115409379 _0_ AGT  --- 2 ack 80 [13a 0 1 800] ------- [1:0 0:0 32 0] [0 0] 1 0
s 1.115409379 _0_ AGT  --- 4 tcp 1040 [0 0 0 0] ------- [0:0 1:0 32 0] [1 0] 0 0
r 1.115409379 _0_ RTR  --- 4 tcp 1040 [0 0 0 0] ------- [0:0 1:0 32 0] [1 0] 0 0
s 1.115409379 _0_ RTR  --- 4 tcp 1060 [0 0 0 0] ------- [0:0 1:0 32 1] [1 0] 0 0
s 1.115409379 _0_ AGT  --- 5 tcp 1040 [0 0 0 0] ------- [0:0 1:0 32 0] [2 0] 0 0
r 1.115409379 _0_ RTR  --- 5 tcp 1040 [0 0 0 0] ------- [0:0 1:0 32 0] [2 0] 0 0
s 1.115409379 _0_ RTR  --- 5 tcp 1060 [0 0 0 0] ------- [0:0 1:0 32 1] [2 0] 0 0
r 1.115698380 _1_ MAC  --- 0 ACK 38 [0 1 0 0] 
s 1.115788379 _0_ MAC  --- 0 RTS 44 [256e 1 0 0] 
r 1.116140380 _1_ MAC  --- 0 RTS 44 [256e 1 0 0] 
s 1.116150380 _1_ MAC  --- 0 CTS 38 [2434 0 0 0] 
r 1.116454380 _0_ MAC  --- 0 CTS 38 [2434 0 0 0] 
s 1.116464380 _0_ MAC  --- 4 tcp 1118 [13a 1 0 800] ------- [0:0 1:0 32 1] [1 0] 0 0
r 1.125408381 _1_ MAC  --- 4 tcp 1060 [13a 1 0 800] ------- [0:0 1:0 32 1] [1 0] 1 0
s 1.125418381 _1_ MAC  --- 0 ACK 38 [0 0 0 0] 
r 1.125433381 _1_ AGT  --- 4 tcp 1060 [13a 1 0 800] ------- [0:0 1:0 32 1] [1 0] 1 0
s 1.125433381 _1_ AGT  --- 6 ack 40 [0 0 0 0] ------- [1:0 0:0 32 0] [1 0] 0 0
r 1.125433381 _1_ RTR  --- 6 ack 40 [0 0 0 0] ------- [1:0 0:0 32 0] [1 0] 0 0
s 1.125433381 _1_ RTR  --- 6 ack 60 [0 0 0 0] ------- [1:0 0:0 32 0] [1 0] 0 0
r 1.125722381 _0_ MAC  --- 0 ACK 38 [0 0 0 0] 
s 1.126112381 _0_ MAC  --- 0 RTS 44 [256e 1 0 0] 
r 1.126464382 _1_ MAC  --- 0 RTS 44 [256e 1 0 0] 
s 1.126474382 _1_ MAC  --- 0 CTS 38 [2434 0 0 0] 
r 1.126778383 _0_ MAC  --- 0 CTS 38 [2434 0 0 0] 
s 1.126788383 _0_ MAC  --- 5 tcp 1118 [13a 1 0 800] ------- [0:0 1:0 32 1] [2 0] 0 0
r 1.135732384 _1_ MAC  --- 5 tcp 1060 [13a 1 0 800] ------- [0:0 1:0 32 1] [2 0] 1 0
s 1.135742384 _1_ MAC  --- 0 ACK 38 [0 0 0 0] 
r 1.135757384 _1_ AGT  --- 5 tcp 1060 [13a 1 0 800] ------- [0:0 1:0 32 1] [2 0] 1 0
s 1.135757384 _1_ AGT  --- 7 ack 40 [0 0 0 0] ------- [1:0 0:0 32 0] [2 0] 0 0
r 1.135757384 _1_ RTR  --- 7 ack 40 [0 0 0 0] ------- [1:0 0:0 32 0] [2 0] 0 0
s 1.135757384 _1_ RTR  --- 7 ack 60 [0 0 0 0] ------- [1:0 0:0 32 0] [2 0] 0 0
r 1.136046385 _0_ MAC  --- 0 ACK 38 [0 0 0 0] 
s 1.136196384 _1_ MAC  --- 0 RTS 44 [62e 0 1 0] 
r 1.136548385 _0_ MAC  --- 0 RTS 44 [62e 0 1 0] 
s 1.136558385 _0_ MAC  --- 0 CTS 38 [4f4 1 0 0] 
r 1.136862386 _1_ MAC  --- 0 CTS 38 [4f4 1 0 0] 
s 1.136872386 _1_ MAC  --- 6 ack 118 [13a 0 1 800] ------- [1:0 0:0 32 0] [1 0] 0 0
r 1.137816387 _0_ MAC  --- 6 ack 60 [13a 0 1 800] ------- [1:0 0:0 32 0] [1 0] 1 0
s 1.137826387 _0_ MAC  --- 0 ACK 38 [0 1 0 0] 
r 1.137841387 _0_ AGT  --- 6 ack 60 [13a 0 1 800] ------- [1:0 0:0 32 0] [1 0] 1 0
s 1.137841387 _0_ AGT  --- 8 tcp 1040 [0 0 0 0] ------- [0:0 1:0 32 0] [3 0] 0 0
r 1.137841387 _0_ RTR  --- 8 tcp 1040 [0 0 0 0] ------- [0:0 1:0 32 0] [3 0] 0 0
s 1.137841387 _0_ RTR  --- 8 tcp 1060 [0 0 0 0] ------- [0:0 1:0 32 1] [3 0] 0 0
s 1.137841387 _0_ AGT  --- 9 tcp 1040 [0 0 0 0] ------- [0:0 1:0 32 0] [4 0] 0 0
r 1.137841387 _0_ RTR  --- 9 tcp 1040 [0 0 0 0] ------- [0:0 1:0 32 0] [4 0] 0 0
s 1.137841387 _0_ RTR  --- 9 tcp 1060 [0 0 0 0] ------- [0:0 1:0 32 1] [4 0] 0 0
r 1.138130388 _1_ MAC  --- 0 ACK 38 [0 1 0 0] 
s 1.138380388 _1_ MAC  --- 0 RTS 44 [62e 0 1 0] 
r 1.138732390 _0_ MAC  --- 0 RTS 44 [62e 0 1 0] 
s 1.138742390 _0_ MAC  --- 0 CTS 38 [4f4 1 0 0] 
r 1.139046391 _1_ MAC  --- 0 CTS 38 [4f4 1 0 0] 
s 1.139056391 _1_ MAC  --- 7 ack 118 [13a 0 1 800] ------- [1:0 0:0 32 0] [2 0] 0 0
r 1.140000392 _0_ MAC  --- 7 ack 60 [13a 0 1 800] ------- [1:0 0:0 32 0] [2 0] 1 0
s 1.140010392 _0_ MAC  --- 0 ACK 38 [0 1 0 0] 
r 1.140025392 _0_ AGT  --- 7 ack 60 [13a 0 1 800] ------- [1:0 0:0 32 0] [2 0] 1 0
s 1.140025392 _0_ AGT  --- 10 tcp 1040 [0 0 0 0] ------- [0:0 1:0 32 0] [5 0] 0 0
r 1.140025392 _0_ RTR  --- 10 tcp 1040 [0 0 0 0] ------- [0:0 1:0 32 0] [5 0] 0 0
s 1.140025392 _0_ RTR  --- 10 tcp 1060 [0 0 0 0] ------- [0:0 1:0 32 1] [5 0] 0 0
s 1.140025392 _0_ AGT  --- 11 tcp 1040 [0 0 0 0] ------- [0:0 1:0 32 0] [6 0] 0 0
r 1.140025392 _0_ RTR  --- 11 tcp 1040 [0 0 0 0] ------- [0:0 1:0 32 0] [6 0] 0 0
s 1.140025392 _0_ RTR  --- 11 tcp 1060 [0 0 0 0] ------- [0:0 1:0 32 1] [6 0] 0 0
r 1.140314393 _1_ MAC  --- 0 ACK 38 [0 1 0 0] 
s 1.140384392 _0_ MAC  --- 0 RTS 44 [256e 1 0 0] 
r 1.140736393 _1_ MAC  --- 0 RTS 44 [256e 1 0 0] 
s 1.140746393 _1_ MAC  --- 0 CTS 38 [2434 0 0 0] 
r 1.141050394 _0_ MAC  --- 0 CTS 38 [2434 0 0 0] 
s 1.141060394 _0_ MAC  --- 8 tcp 1118 [13a 1 0 800] ------- [0:0 1:0 32 1] [3 0] 0 0
r 1.150004396 _1_ MAC  --- 8 tcp 1060 [13a 1 0 800] ------- [0:0 1:0 32 1] [3 0] 1 0
s 1.150014396 _1_ MAC  --- 0 ACK 38 [0 0 0 0] 
r 1.150029396 _1_ AGT  --- 8 tcp 1060 [13a 1 0 800] ------- [0:0 1:0 32 1] [3 0] 1 0
s 1.150029396 _1_ AGT  --- 12 ack 40 [0 0 0 0] ------- [1:0 0:0 32 0] [3 0] 0 0
r 1.150029396 _1_ RTR  --- 12 ack 40 [0 0 0 0] ------- [1:0 0:0 32 0] [3 0] 0 0
s 1.150029396 _1_ RTR  --- 12 ack 60 [0 0 0 0] ------- [1:0 0:0 32 0] [3 0] 0 0
r 1.150318397 _0_ MAC  --- 0 ACK 38 [0 0 0 0] 
s 1.150388397 _0_ MAC  --- 0 RTS 44 [256e 1 0 0] 
r 1.150740399 _1_ MAC  --- 0 RTS 44 [256e 1 0 0] 
s 1.150750399 _1_ MAC  --- 0 CTS 38 [2434 0 0 0] 
r 1.151054400 _0_ MAC  --- 0 CTS 38 [2434 0 0 0] 
s 1.151064400 _0_ MAC  --- 9 tcp 1118 [13a 1 0 800] ------- [0:0 1:0 32 1] [4 0] 0 0
r 1.160008402 _1_ MAC  --- 9 tcp 1060 [13a 1 0 800] ------- [0:0 1:0 32 1] [4 0] 1 0
s 1.160018402 _1_ MAC  --- 0 ACK 38 [0 0 0 0] 
r 1.160033402 _1_ AGT  --- 9 tcp 1060 [13a 1 0 800] ------- [0:0 1:0 32 1] [4 0] 1 0
s 1.160033402 _1_ AGT  --- 13 ack 40 [0 0 0 0] ------- [1:0 0:0 32 0] [4 0] 0 0
r 1.160033402 _1_ RTR  --- 13 ack 40 [0 0 0 0] ------- [1:0 0:0 32 0] [4 0] 0 0
s 1.160033402 _1_ RTR  --- 13 ack 60 [0 0 0 0] ------- [1:0 0:0 32 0] [4 0] 0 0
r 1.160322404 _0_ MAC  --- 0 ACK 38 [0 0 0 0] 
s 1.160552402 _1_ MAC  --- 0 RTS 44 [62e 0 1 0] 
r 1.160904404 _0_ MAC  --- 0 RTS 44 [62e 0 1 0] 
s 1.160914404 _0_ MAC  --- 0 CTS 38 [4f4 1 0 0] 
r 1.161218406 _1_ MAC  --- 0 CTS 38 [4f4 1 0 0] 
s 1.161228406 _1_ MAC  --- 12 ack 118 [13a 0 1 800] ------- [1:0 0:0 32 0] [3 0] 0 0
r 1.162172408 _0_ MAC  --- 12 ack 60 [13a 0 1 800] ------- [1:0 0:0 32 0] [3 0] 1 0
s 1.162182408 _0_ MAC  --- 0 ACK 38 [0 1 0 0] 
r 1.162197408 _0_ AGT  --- 12 ack 60 [13a 0 1 800] ------- [1:0 0:0 32 0] [3 0] 1 0
s 1.162197408 _0_ AGT  --- 14 tcp 1040 [0 0 0 0] ------- [0:0 1:0 32 0] [7 0] 0 0
r 1.162197408 _0_ RTR  --- 14 tcp 1040 [0 0 0 0] ------- [0:0 1:0 32 0] [7 0] 0 0
s 1.162197408 _0_ RTR  --- 14 tcp 1060 [0 0 0 0] ------- [0:0 1:0 32 1] [7 0] 0 0
s 1.162197408 _0_ AGT  --- 15 tcp 1040 [0 0 0 0] ------- [0:0 1:0 32 0] [8 0] 0 0
r 1.162197408 _0_ RTR  --- 15 tcp 1040 [0 0 0 0] ------- [0:0 1:0 32 0] [8 0] 0 0
s 1.162197408 _0_ RTR  --- 15 tcp 1060 [0 0 0 0] ------- [0:0 1:0 32 1] [8 0] 0 0
r 1.162486409 _1_ MAC  --- 0 ACK 38 [0 1 0 0] 
s 1.162596408 _0_ MAC  --- 0 RTS 44 [256e 1 0 0] 
r 1.162948409 _1_ MAC  --- 0 RTS 44 [256e 1 0 0] 
s 1.162958409 _1_ MAC  --- 0 CTS 38 [2434 0 0 0] 
r 1.163262411 _0_ MAC  --- 0 CTS 38 [2434 0 0 0] 
s 1.163272411 _0_ MAC  --- 10 tcp 1118 [13a 1 0 800] ------- [0:0 1:0 32 1] [5 0] 0 0
r 1.172216413 _1_ MAC  --- 10 tcp 1060 [13a 1 0 800] ------- [0:0 1:0 32 1] [5 0] 1 0
s 1.172226413 _1_ MAC  --- 0 ACK 38 [0 0 0 0] 
r 1.172241413 _1_ AGT  --- 10 tcp 1060 [13a 1 0 800] ------- [0:0 1:0 32 1] [5 0] 1 0
s 1.172241413 _1_ AGT  --- 16 ack 40 [0 0 0 0] ------- [1:0 0:0 32 0] [5 0] 0 0
r 1.172241413 _1_ RTR  --- 16 ack 40 [0 0 0 0] ------- [1:0 0:0 32 0] [5 0] 0 0
s 1.172241413 _1_ RTR  --- 16 ack 60 [0 0 0 0] ------- [1:0 0:0 32 0] [5 0] 0 0
r 1.172530416 _0_ MAC  --- 0 ACK 38 [0 0 0 0] 
s 1.172760416 _0_ MAC  --- 0 RTS 44 [256e 1 0 0] 
r 1.173112418 _1_ MAC  --- 0 RTS 44 [256e 1 0 0] 
s 1.173122418 _1_ MAC  --- 0 CTS 38 [2434 0 0 0] 
r 1.173426420 _0_ MAC  --- 0 CTS 38 [2434 0 0 0] 
s 1.173436420 _0_ MAC  --- 11 tcp 1118 [13a 1 0 800] ------- [0:0 1:0 32 1] [6 0] 0 0
r 1.182380422 _1_ MAC  --- 11 tcp 1060 [13a 1 0 800] ------- [0:0 1:0 32 1] [6 0] 1 0
s 1.182390422 _1_ MAC  --- 0 ACK 38 [0 0 0 0] 
r 1.182405422 _1_ AGT  --- 11 tcp 1060 [13a 1 0 800] ------- [0:0 1:0 32 1] [6 0] 1 0
s 1.182405422 _1_ AGT  --- 17 ack 40 [0 0 0 0] ------- [1:0 0:0 32 0] [6 0] 0 0
r 1.182405422 _1_ RTR  --- 17 ack 40 [0 0 0 0] ------- [1:0 0:0 32 0] [6 0] 0 0
s 1.182405422 _1_ RTR  --- 17 ack 60 [0 0 0 0] ------- [1:0 0:0 32 0] [6 0] 0 0
r 1.182694425 _0_ MAC  --- 0 ACK 38 [0 0 0 0] 
s 1.182944422 _1_ MAC  --- 0 RTS 44 [62e 0 1 0] 
r 1.183296425 _0_ MAC  --- 0 RTS 44 [62e 0 1 0] 
s 1.183306425 _0_ MAC  --- 0 CTS 38 [4f4 1 0 0] 
r 1.183610427 _1_ MAC  --- 0 CTS 38 [4f4 1 0 0] 
s 1.183620427 _1_ MAC  --- 13 ack 118 [13a 0 1 800] ------- [1:0 0:0 32 0] [4 0] 0 0
r 1.184564430 _0_ MAC  --- 13 ack 60 [13a 0 1 800] ------- [1:0 0:0 32 0] [4 0] 1 0
s 1.184574430 _0_ MAC  --- 0 ACK 38 [0 1 0 0] 
r 1.184589430 _0_ AGT  --- 13 ack 60 [13a 0 1 800] ------- [1:0 0:0 32 0] [4 0] 1 0
s 1.184589430 _0_ AGT  --- 18 tcp 1040 [0 0 0 0] ------- [0:0 1:0 32 0] [9 0] 0 0
r 1.184589430 _0_ RTR  --- 18 tcp 1040 [0 0 0 0] ------- [0:0 1:0 32 0] [9 0] 0 0
s 1.184589430 _0_ RTR  --- 18 tcp 1060 [0 0 0 0] ------- [0:0 1:0 32 1] [9 0] 0 0
s 1.184589430 _0_ AGT  --- 19 tcp 1040 [0 0 0 0] ------- [0:0 1:0 32 0] [10 0] 0 0
r 1.184589430 _0_ RTR  --- 19 tcp 1040 [0 0 0 0] ------- [0:0 1:0 32 0] [10 0] 0 0
s 1.184589430 _0_ RTR  --- 19 tcp 1060 [0 0 0 0] ------- [0:0 1:0 32 1] [10 0] 0 0
r 1.184878432 _1_ MAC  --- 0 ACK 38 [0 1 0 0] 
s 1.185308430 _0_ MAC  --- 0 RTS 44 [256e 1 0 0] 
r 1.185660432 _1_ MAC  --- 0 RTS 44 [256e 1 0 0] 
s 1.185670432 _1_ MAC  --- 0 CTS 38 [2434 0 0 0] 
r 1.185974435 _0_ MAC  --- 0 CTS 38 [2434 0 0 0] 
s 1.185984435 _0_ MAC  --- 14 tcp 1118 [13a 1 0 800] ------- [0:0 1:0 32 1] [7 0] 0 0
r 1.194928438 _1_ MAC  --- 14 tcp 1060 [13a 1 0 800] ------- [0:0 1:0 32 1] [7 0] 1 0
s 1.194938438 _1_ MAC  --- 0 ACK 38 [0 0 0 0] 
r 1.194953438 _1_ AGT  --- 14 tcp 1060 [13a 1 0 800] ------- [0:0 1:0 32 1] [7 0] 1 0
s 1.194953438 _1_ AGT  --- 20 ack 40 [0 0 0 0] ------- [1:0 0:0 32 0] [7 0] 0 0
r 1.194953438 _1_ RTR  --- 20 ack 40 [0 0 0 0] ------- [1:0 0:0 32 0] [7 0] 0 0
s 1.194953438 _1_ RTR  --- 20 ack 60 [0 0 0 0] ------- [1:0 0:0 32 0] [7 0] 0 0
r 1.195242441 _0_ MAC  --- 0 ACK 38 [0 0 0 0] 
s 1.195312438 _1_ MAC  --- 0 RTS 44 [62e 0 1 0] 
r 1.195664441 _0_ MAC  --- 0 RTS 44 [62e 0 1 0] 
s 1.195674441 _0_ MAC  --- 0 CTS 38 [4f4 1 0 0] 
r 1.195978444 _1_ MAC  --- 0 CTS 38 [4f4 1 0 0] 
s 1.195988444 _1_ MAC  --- 16 ack 118 [13a 0 1 800] ------- [1:0 0:0 32 0] [5 0] 0 0
r 1.196932447 _0_ MAC  --- 16 ack 60 [13a 0 1 800] ------- [1:0 0:0 32 0] [5 0] 1 0
s 1.196942447 _0_ MAC  --- 0 ACK 38 [0 1 0 0] 
r 1.196957447 _0_ AGT  --- 16 ack 60 [13a 0 1 800] ------- [1:0 0:0 32 0] [5 0] 1 0
s 1.196957447 _0_ AGT  --- 21 tcp 1040 [0 0 0 0] ------- [0:0 1:0 32 0] [11 0] 0 0
r 1.196957447 _0_ RTR  --- 21 tcp 1040 [0 0 0 0] ------- [0:0 1:0 32 0] [11 0] 0 0
s 1.196957447 _0_ RTR  --- 21 tcp 1060 [0 0 0 0] ------- [0:0 1:0 32 1] [11 0] 0 0
s 1.196957447 _0_ AGT  --- 22 tcp 1040 [0 0 0 0] ------- [0:0 1:0 32 0] [12 0] 0 0
r 1.196957447 _0_ RTR  --- 22 tcp 1040 [0 0 0 0] ------- [0:0 1:0 32 0] [12 0] 0 0
s 1.196957447 _0_ RTR  --- 22 tcp 1060 [0 0 0 0] ------- [0:0 1:0 32 1] [12 0] 0 0
r 1.197246450 _1_ MAC  --- 0 ACK 38 [0 1 0 0] 
s 1.197656450 _1_ MAC  --- 0 RTS 44 [62e 0 1 0] 
r 1.198008453 _0_ MAC  --- 0 RTS 44 [62e 0 1 0] 
s 1.198018453 _0_ MAC  --- 0 CTS 38 [4f4 1 0 0] 
r 1.198322456 _1_ MAC  --- 0 CTS 38 [4f4 1 0 0] 
s 1.198332456 _1_ MAC  --- 17 ack 118 [13a 0 1 800] ------- [1:0 0:0 32 0] [6 0] 0 0
r 1.199276459 _0_ MAC  --- 17 ack 60 [13a 0 1 800] ------- [1:0 0:0 32 0] [6 0] 1 0
s 1.199286459 _0_ MAC  --- 0 ACK 38 [0 1 0 0] 
r 1.199301459 _0_ AGT  --- 17 ack 60 [13a 0 1 800] ------- [1:0 0:0 32 0] [6 0] 1 0
s 1.199301459 _0_ AGT  --- 23 tcp 1040 [0 0 0 0] ------- [0:0 1:0 32 0] [13 0] 0 0
r 1.199301459 _0_ RTR  --- 23 tcp 1040 [0 0 0 0] ------- [0:0 1:0 32 0] [13 0] 0 0
s 1.199301459 _0_ RTR  --- 23 tcp 1060 [0 0 0 0] ------- [0:0 1:0 32 1] [13 0] 0 0
s 1.199301459 _0_ AGT  --- 24 tcp 1040 [0 0 0 0] ------- [0:0 1:0 32 0] [14 0] 0 0
r 1.199301459 _0_ RTR  --- 24 tcp 1040 [0 0 0 0] ------- [0:0 1:0 32 0] [14 0] 0 0
s 1.199301459 _0_ RTR  --- 24 tcp 1060 [0 0 0 0] ------- [0:0 1:0 32 1] [14 0] 0 0
r 1.199590462 _1_ MAC  --- 0 ACK 38 [0 1 0 0] 
s 1.199680462 _1_ MAC  --- 0 RTS 44 [62e 0 1 0] 
r 1.200032465 _0_ MAC  --- 0 RTS 44 [62e 0 1 0] 
s 1.200042465 _0_ MAC  --- 0 CTS 38 [4f4 1 0 0] 
r 1.200346468 _1_ MAC  --- 0 CTS 38 [4f4 1 0 0] 
s 1.200356468 _1_ MAC  --- 20 ack 118 [13a 0 1 800] ------- [1:0 0:0 32 0] [7 0] 0 0
r 1.201300471 _0_ MAC  --- 20 ack 60 [13a 0 1 800] ------- [1:0 0:0 32 0] [7 0] 1 0
s 1.201310471 _0_ MAC  --- 0 ACK 38 [0 1 0 0] 
r 1.201325471 _0_ AGT  --- 20 ack 60 [13a 0 1 800] ------- [1:0 0:0 32 0] [7 0] 1 0
s 1.201325471 _0_ AGT  --- 25 tcp 1040 [0 0 0 0] ------- [0:0 1:0 32 0] [15 0] 0 0
r 1.201325471 _0_ RTR  --- 25 tcp 1040 [0 0 0 0] ------- [0:0 1:0 32 0] [15 0] 0 0
s 1.201325471 _0_ RTR  --- 25 tcp 1060 [0 0 0 0] ------- [0:0 1:0 32 1] [15 0] 0 0
s 1.201325471 _0_ AGT  --- 26 tcp 1040 [0 0 0 0] ------- [0:0 1:0 32 0] [16 0] 0 0
r 1.201325471 _0_ RTR  --- 26 tcp 1040 [0 0 0 0] ------- [0:0 1:0 32 0] [16 0] 0 0
s 1.201325471 _0_ RTR  --- 26 tcp 1060 [0 0 0 0] ------- [0:0 1:0 32 1] [16 0] 0 0
r 1.201614474 _1_ MAC  --- 0 ACK 38 [0 1 0 0] 
s 1.201784471 _0_ MAC  --- 0 RTS 44 [256e 1 0 0] 
r 1.202136474 _1_ MAC  --- 0 RTS 44 [256e 1 0 0] 
s 1.202146474 _1_ MAC  --- 0 CTS 38 [2434 0 0 0] 
r 1.202450477 _0_ MAC  --- 0 CTS 38 [2434 0 0 0] 
s 1.202460477 _0_ MAC  --- 15 tcp 1118 [13a 1 0 800] ------- [0:0 1:0 32 1] [8 0] 0 0
r 1.211404480 _1_ MAC  --- 15 tcp 1060 [13a 1 0 800] ------- [0:0 1:0 32 1] [8 0] 1 0
s 1.211414480 _1_ MAC  --- 0 ACK 38 [0 0 0 0] 
r 1.211429480 _1_ AGT  --- 15 tcp 1060 [13a 1 0 800] ------- [0:0 1:0 32 1] [8 0] 1 0
s 1.211429480 _1_ AGT  --- 27 ack 40 [0 0 0 0] ------- [1:0 0:0 32 0] [8 0] 0 0
r 1.211429480 _1_ RTR  --- 27 ack 40 [0 0 0 0] ------- [1:0 0:0 32 0] [8 0] 0 0
s 1.211429480 _1_ RTR  --- 27 ack 60 [0 0 0 0] ------- [1:0 0:0 32 0] [8 0] 0 0
r 1.211718484 _0_ MAC  --- 0 ACK 38 [0 0 0 0] 
s 1.211948480 _1_ MAC  --- 0 RTS 44 [62e 0 1 0] 
r 1.212300484 _0_ MAC  --- 0 RTS 44 [62e 0 1 0] 
s 1.212310484 _0_ MAC  --- 0 CTS 38 [4f4 1 0 0] 
r 1.212614487 _1_ MAC  --- 0 CTS 38 [4f4 1 0 0] 
s 1.212624487 _1_ MAC  --- 27 ack 118 [13a 0 1 800] ------- [1:0 0:0 32 0] [8 0] 0 0
r 1.213568490 _0_ MAC  --- 27 ack 60 [13a 0 1 800] ------- [1:0 0:0 32 0] [8 0] 1 0
s 1.213578490 _0_ MAC  --- 0 ACK 38 [0 1 0 0] 
r 1.213593490 _0_ AGT  --- 27 ack 60 [13a 0 1 800] ------- [1:0 0:0 32 0] [8 0] 1 0
s 1.213593490 _0_ AGT  --- 28 tcp 1040 [0 0 0 0] ------- [0:0 1:0 32 0] [17 0] 0 0
r 1.213593490 _0_ RTR  --- 28 tcp 1040 [0 0 0 0] ------- [0:0 1:0 32 0] [17 0] 0 0
s 1.213593490 _0_ RTR  --- 28 tcp 1060 [0 0 0 0] ------- [0:0 1:0 32 1] [17 0] 0 0
s 1.213593490 _0_ AGT  --- 29 tcp 1040 [0 0 0 0] ------- [0:0 1:0 32 0] [18 0] 0 0
r 1.213593490 _0_ RTR  --- 29 tcp 1040 [0 0 0 0] ------- [0:0 1:0 32 0] [18 0] 0 0
s 1.213593490 _0_ RTR  --- 29 tcp 1060 [0 0 0 0] ------- [0:0 1:0 32 1] [18 0] 0 0
r 1.213882494 _1_ MAC  --- 0 ACK 38 [0 1 0 0] 
s 1.214112490 _0_ MAC  --- 0 RTS 44 [256e 1 0 0] 
r 1.214464494 _1_ MAC  --- 0 RTS 44 [256e 1 0 0] 
s 1.214474494 _1_ MAC  --- 0 CTS 38 [2434 0 0 0] 
r 1.214778497 _0_ MAC  --- 0 CTS 38 [2434 0 0 0] 
s 1.214788497 _0_ MAC  --- 18 tcp 1118 [13a 1 0 800] ------- [0:0 1:0 32 1] [9 0] 0 0
r 1.223732501 _1_ MAC  --- 18 tcp 1060 [13a 1 0 800] ------- [0:0 1:0 32 1] [9 0] 1 0
s 1.223742501 _1_ MAC  --- 0 ACK 38 [0 0 0 0] 
r 1.223757501 _1_ AGT  --- 18 tcp 1060 [13a 1 0 800] ------- [0:0 1:0 32 1] [9 0] 1 0
s 1.223757501 _1_ AGT  --- 30 ack 40 [0 0 0 0] ------- [1:0 0:0 32 0] [9 0] 0 0
r 1.223757501 _1_ RTR  --- 30 ack 40 [0 0 0 0] ------- [1:0 0:0 32 0] [9 0] 0 0
s 1.223757501 _1_ RTR  --- 30 ack 60 [0 0 0 0] ------- [1:0 0:0 32 0] [9 0] 0 0
r 1.224046505 _0_ MAC  --- 0 ACK 38 [0 0 0 0] 
s 1.224176501 _1_ MAC  --- 0 RTS 44 [62e 0 1 0] 
r 1.224528505 _0_ MAC  --- 0 RTS 44 [62e 0 1 0] 
s 1.224538505 _0_ MAC  --- 0 CTS 38 [4f4 1 0 0] 
r 1.224842509 _1_ MAC  --- 0 CTS 38 [4f4 1 0 0] 
s 1.224852509 _1_ MAC  --- 30 ack 118 [13a 0 1 800] ------- [1:0 0:0 32 0] [9 0] 0 0
r 1.225796512 _0_ MAC  --- 30 ack 60 [13a 0 1 800] ------- [1:0 0:0 32 0] [9 0] 1 0
s 1.225806512 _0_ MAC  --- 0 ACK 38 [0 1 0 0] 
r 1.225821512 _0_ AGT  --- 30 ack 60 [13a 0 1 800] ------- [1:0 0:0 32 0] [9 0] 1 0
s 1.225821512 _0_ AGT  --- 31 tcp 1040 [0 0 0 0] ------- [0:0 1:0 32 0] [19 0] 0 0
r 1.225821512 _0_ RTR  --- 31 tcp 1040 [0 0 0 0] ------- [0:0 1:0 32 0] [19 0] 0 0
s 1.225821512 _0_ RTR  --- 31 tcp 1060 [0 0 0 0] ------- [0:0 1:0 32 1] [19 0] 0 0
s 1.225821512 _0_ AGT  --- 32 tcp 1040 [0 0 0 0] ------- [0:0 1:0 32 0] [20 0] 0 0
r 1.225821512 _0_ RTR  --- 32 tcp 1040 [0 0 0 0] ------- [0:0 1:0 32 0] [20 0] 0 0
s 1.225821512 _0_ RTR  --- 32 tcp 1060 [0 0 0 0] ------- [0:0 1:0 32 1] [20 0] 0 0
r 1.226110516 _1_ MAC  --- 0 ACK 38 [0 1 0 0] 
s 1.226360512 _0_ MAC  --- 0 RTS 44 [256e 1 0 0] 
r 1.226712516 _1_ MAC  --- 0 RTS 44 [256e 1 0 0] 
s 1.226722516 _1_ MAC  --- 0 CTS 38 [2434 0 0 0] 
r 1.227026520 _0_ MAC  --- 0 CTS 38 [2434 0 0 0] 
s 1.227036520 _0_ MAC  --- 19 tcp 1118 [13a 1 0 800] ------- [0:0 1:0 32 1] [10 0] 0 0
r 1.235980524 _1_ MAC  --- 19 tcp 1060 [13a 1 0 800] ------- [0:0 1:0 32 1] [10 0] 1 0
s 1.235990524 _1_ MAC  --- 0 ACK 38 [0 0 0 0] 
r 1.236005524 _1_ AGT  --- 19 tcp 1060 [13a 1 0 800] ------- [0:0 1:0 32 1] [10 0] 1 0
s 1.236005524 _1_ AGT  --- 33 ack 40 [0 0 0 0] ------- [1:0 0:0 32 0] [10 0] 0 0
r 1.236005524 _1_ RTR  --- 33 ack 40 [0 0 0 0] ------- [1:0 0:0 32 0] [10 0] 0 0
s 1.236005524 _1_ RTR  --- 33 ack 60 [0 0 0 0] ------- [1:0 0:0 32 0] [10 0] 0 0
r 1.236294528 _0_ MAC  --- 0 ACK 38 [0 0 0 0] 
s 1.236444524 _1_ MAC  --- 0 RTS 44 [62e 0 1 0] 
r 1.236796528 _0_ MAC  --- 0 RTS 44 [62e 0 1 0] 
s 1.236806528 _0_ MAC  --- 0 CTS 38 [4f4 1 0 0] 
r 1.237110532 _1_ MAC  --- 0 CTS 38 [4f4 1 0 0] 
s 1.237120532 _1_ MAC  --- 33 ack 118 [13a 0 1 800] ------- [1:0 0:0 32 0] [10 0] 0 0
r 1.238064537 _0_ MAC  --- 33 ack 60 [13a 0 1 800] ------- [1:0 0:0 32 0] [10 0] 1 0
s 1.238074537 _0_ MAC  --- 0 ACK 38 [0 1 0 0] 
r 1.238089537 _0_ AGT  --- 33 ack 60 [13a 0 1 800] ------- [1:0 0:0 32 0] [10 0] 1 0
s 1.238089537 _0_ AGT  --- 34 tcp 1040 [0 0 0 0] ------- [0:0 1:0 32 0] [21 0] 0 0
r 1.238089537 _0_ RTR  --- 34 tcp 1040 [0 0 0 0] ------- [0:0 1:0 32 0] [21 0] 0 0
s 1.238089537 _0_ RTR  --- 34 tcp 1060 [0 0 0 0] ------- [0:0 1:0 32 1] [21 0] 0 0
s 1.238089537 _0_ AGT  --- 35 tcp 1040 [0 0 0 0] ------- [0:0 1:0 32 0] [22 0] 0 0
r 1.238089537 _0_ RTR  --- 35 tcp 1040 [0 0 0 0] ------- [0:0 1:0 32 0] [22 0] 0 0
s 1.238089537 _0_ RTR  --- 35 tcp 1060 [0 0 0 0] ------- [0:0 1:0 32 1] [22 0] 0 0
r 1.238378541 _1_ MAC  --- 0 ACK 38 [0 1 0 0] 
s 1.238848537 _0_ MAC  --- 0 RTS 44 [256e 1 0 0] 
r 1.239200541 _1_ MAC  --- 0 RTS 44 [256e 1 0 0] 
s 1.239210541 _1_ MAC  --- 0 CTS 38 [2434 0 0 0] 
r 1.239514545 _0_ MAC  --- 0 CTS 38 [2434 0 0 0] 
s 1.239524545 _0_ MAC  --- 21 tcp 1118 [13a 1 0 800] ------- [0:0 1:0 32 1] [11 0] 0 0
r 1.248468549 _1_ MAC  --- 21 tcp 1060 [13a 1 0 800] ------- [0:0 1:0 32 1] [11 0] 1 0
s 1.248478549 _1_ MAC  --- 0 ACK 38 [0 0 0 0] 
r 1.248493549 _1_ AGT  --- 21 tcp 1060 [13a 1 0 800] ------- [0:0 1:0 32 1] [11 0] 1 0
s 1.248493549 _1_ AGT  --- 36 ack 40 [0 0 0 0] ------- [1:0 0:0 32 0] [11 0] 0 0
r 1.248493549 _1_ RTR  --- 36 ack 40 [0 0 0 0] ------- [1:0 0:0 32 0] [11 0] 0 0
s 1.248493549 _1_ RTR  --- 36 ack 60 [0 0 0 0] ------- [1:0 0:0 32 0] [11 0] 0 0
r 1.248782554 _0_ MAC  --- 0 ACK 38 [0 0 0 0] 
s 1.249032549 _1_ MAC  --- 0 RTS 44 [62e 0 1 0] 
r 1.249384554 _0_ MAC  --- 0 RTS 44 [62e 0 1 0] 
s 1.249394554 _0_ MAC  --- 0 CTS 38 [4f4 1 0 0] 
r 1.249698559 _1_ MAC  --- 0 CTS 38 [4f4 1 0 0] 
s 1.249708559 _1_ MAC  --- 36 ack 118 [13a 0 1 800] ------- [1:0 0:0 32 0] [11 0] 0 0
r 1.250652563 _0_ MAC  --- 36 ack 60 [13a 0 1 800] ------- [1:0 0:0 32 0] [11 0] 1 0
s 1.250662563 _0_ MAC  --- 0 ACK 38 [0 1 0 0] 
r 1.250677563 _0_ AGT  --- 36 ack 60 [13a 0 1 800] ------- [1:0 0:0 32 0] [11 0] 1 0
s 1.250677563 _0_ AGT  --- 37 tcp 1040 [0 0 0 0] ------- [0:0 1:0 32 0] [23 0] 0 0
r 1.250677563 _0_ RTR  --- 37 tcp 1040 [0 0 0 0] ------- [0:0 1:0 32 0] [23 0] 0 0
s 1.250677563 _0_ RTR  --- 37 tcp 1060 [0 0 0 0] ------- [0:0 1:0 32 1] [23 0] 0 0
s 1.250677563 _0_ AGT  --- 38 tcp 1040 [0 0 0 0] ------- [0:0 1:0 32 0] [24 0] 0 0
r 1.250677563 _0_ RTR  --- 38 tcp 1040 [0 0 0 0] ------- [0:0 1:0 32 0] [24 0] 0 0
s 1.250677563 _0_ RTR  --- 38 tcp 1060 [0 0 0 0] ------- [0:0 1:0 32 1] [24 0] 0 0
r 1.250966568 _1_ MAC  --- 0 ACK 38 [0 1 0 0] 
s 1.251396563 _0_ MAC  --- 0 RTS 44 [256e 1 0 0] 
r 1.251748568 _1_ MAC  --- 0 RTS 44 [256e 1 0 0] 
s 1.251758568 _1_ MAC  --- 0 CTS 38 [2434 0 0 0] 
r 1.252062572 _0_ MAC  --- 0 CTS 38 [2434 0 0 0] 
s 1.252072572 _0_ MAC  --- 22 tcp 1118 [13a 1 0 800] ------- [0:0 1:0 32 1] [12 0] 0 0
r 1.261016577 _1_ MAC  --- 22 tcp 1060 [13a 1 0 800] ------- [0:0 1:0 32 1] [12 0] 1 0
s 1.261026577 _1_ MAC  --- 0 ACK 38 [0 0 0 0] 
r 1.261041577 _1_ AGT  --- 22 tcp 1060 [13a 1 0 800] ------- [0:0 1:0 32 1] [12 0] 1 0
s 1.261041577 _1_ AGT  --- 39 ack 40 [0 0 0 0] ------- [1:0 0:0 32 0] [12 0] 0 0
r 1.261041577 _1_ RTR  --- 39 ack 40 [0 0 0 0] ------- [1:0 0:0 32 0] [12 0] 0 0
s 1.261041577 _1_ RTR  --- 39 ack 60 [0 0 0 0] ------- [1:0 0:0 32 0] [12 0] 0 0
r 1.261330582 _0_ MAC  --- 0 ACK 38 [0 0 0 0] 
s 1.261500577 _1_ MAC  --- 0 RTS 44 [62e 0 1 0] 
r 1.261852582 _0_ MAC  --- 0 RTS 44 [62e 0 1 0] 
s 1.261862582 _0_ MAC  --- 0 CTS 38 [4f4 1 0 0] 
r 1.262166587 _1_ MAC  --- 0 CTS 38 [4f4 1 0 0] 
s 1.262176587 _1_ MAC  --- 39 ack 118 [13a 0 1 800] ------- [1:0 0:0 32 0] [12 0] 0 0
r 1.263120592 _0_ MAC  --- 39 ack 60 [13a 0 1 800] ------- [1:0 0:0 32 0] [12 0] 1 0
s 1.263130592 _0_ MAC  --- 0 ACK 38 [0 1 0 0] 
r 1.263145592 _0_ AGT  --- 39 ack 60 [13a 0 1 800] ------- [1:0 0:0 32 0] [12 0] 1 0
s 1.263145592 _0_ AGT  --- 40 tcp 1040 [0 0 0 0] ------- [0:0 1:0 32 0] [25 0] 0 0
r 1.263145592 _0_ RTR  --- 40 tcp 1040 [0 0 0 0] ------- [0:0 1:0 32 0] [25 0] 0 0
s 1.263145592 _0_ RTR  --- 40 tcp 1060 [0 0 0 0] ------- [0:0 1:0 32 1] [25 0] 0 0
s 1.263145592 _0_ AGT  --- 41 tcp 1040 [0 0 0 0] ------- [0:0 1:0 32 0] [26 0] 0 0
r 1.263145592 _0_ RTR  --- 41 tcp 1040 [0 0 0 0] ------- [0:0 1:0 32 0] [26 0] 0 0
s 1.263145592 _0_ RTR  --- 41 tcp 1060 [0 0 0 0] ------- [0:0 1:0 32 1] [26 0] 0 0
r 1.263434597 _1_ MAC  --- 0 ACK 38 [0 1 0 0] 
s 1.263704592 _0_ MAC  --- 0 RTS 44 [256e 1 0 0] 
r 1.264056597 _1_ MAC  --- 0 RTS 44 [256e 1 0 0] 
s 1.264066597 _1_ MAC  --- 0 CTS 38 [2434 0 0 0] 
r 1.264370602 _0_ MAC  --- 0 CTS 38 [2434 0 0 0] 
s 1.264380602 _0_ MAC  --- 23 tcp 1118 [13a 1 0 800] ------- [0:0 1:0 32 1] [13 0] 0 0
r 1.273324607 _1_ MAC  --- 23 tcp 1060 [13a 1 0 800] ------- [0:0 1:0 32 1] [13 0] 1 0
s 1.273334607 _1_ MAC  --- 0 ACK 38 [0 0 0 0] 
r 1.273349607 _1_ AGT  --- 23 tcp 1060 [13a 1 0 800] ------- [0:0 1:0 32 1] [13 0] 1 0
s 1.273349607 _1_ AGT  --- 42 ack 40 [0 0 0 0] ------- [1:0 0:0 32 0] [13 0] 0 0
r 1.273349607 _1_ RTR  --- 42 ack 40 [0 0 0 0] ------- [1:0 0:0 32 0] [13 0] 0 0
s 1.273349607 _1_ RTR  --- 42 ack 60 [0 0 0 0] ------- [1:0 0:0 32 0] [13 0] 0 0
r 1.273638612 _0_ MAC  --- 0 ACK 38 [0 0 0 0] 
s 1.273968607 _1_ MAC  --- 0 RTS 44 [62e 0 1 0] 
s 1.273968612 _0_ MAC  --- 0 RTS 44 [256e 1 0 0] 
s 1.275214612 _0_ MAC  --- 0 RTS 44 [256e 1 0 0] 
r 1.275566618 _1_ MAC  --- 0 RTS 44 [256e 1 0 0] 
s 1.275576618 _1_ MAC  --- 0 CTS 38 [2434 0 0 0] 
r 1.275880623 _0_ MAC  --- 0 CTS 38 [2434 0 0 0] 
s 1.275890623 _0_ MAC  --- 24 tcp 1118 [13a 1 0 800] ------- [0:0 1:0 32 1] [14 0] 0 0
r 1.284834629 _1_ MAC  --- 24 tcp 1060 [13a 1 0 800] ------- [0:0 1:0 32 1] [14 0] 1 0
s 1.284844629 _1_ MAC  --- 0 ACK 38 [0 0 0 0] 
r 1.284859629 _1_ AGT  --- 24 tcp 1060 [13a 1 0 800] ------- [0:0 1:0 32 1] [14 0] 1 0
s 1.284859629 _1_ AGT  --- 43 ack 40 [0 0 0 0] ------- [1:0 0:0 32 0] [14 0] 0 0
r 1.284859629 _1_ RTR  --- 43 ack 40 [0 0 0 0] ------- [1:0 0:0 32 0] [14 0] 0 0
s 1.284859629 _1_ RTR  --- 43 ack 60 [0 0 0 0] ------- [1:0 0:0 32 0] [14 0] 0 0
r 1.285148634 _0_ MAC  --- 0 ACK 38 [0 0 0 0] 
s 1.285658629 _1_ MAC  --- 0 RTS 44 [62e 0 1 0] 
r 1.286010634 _0_ MAC  --- 0 RTS 44 [62e 0 1 0] 
s 1.286020634 _0_ MAC  --- 0 CTS 38 [4f4 1 0 0] 
r 1.286324640 _1_ MAC  --- 0 CTS 38 [4f4 1 0 0] 
s 1.286334640 _1_ MAC  --- 42 ack 118 [13a 0 1 800] ------- [1:0 0:0 32 0] [13 0] 0 0
r 1.287278646 _0_ MAC  --- 42 ack 60 [13a 0 1 800] ------- [1:0 0:0 32 0] [13 0] 1 0
s 1.287288646 _0_ MAC  --- 0 ACK 38 [0 1 0 0] 
r 1.287303646 _0_ AGT  --- 42 ack 60 [13a 0 1 800] ------- [1:0 0:0 32 0] [13 0] 1 0
s 1.287303646 _0_ AGT  --- 44 tcp 1040 [0 0 0 0] ------- [0:0 1:0 32 0] [27 0] 0 0
r 1.287303646 _0_ RTR  --- 44 tcp 1040 [0 0 0 0] ------- [0:0 1:0 32 0] [27 0] 0 0
s 1.287303646 _0_ RTR  --- 44 tcp 1060 [0 0 0 0] ------- [0:0 1:0 32 1] [27 0] 0 0
s 1.287303646 _0_ AGT  --- 45 tcp 1040 [0 0 0 0] ------- [0:0 1:0 32 0] [28 0] 0 0
r 1.287303646 _0_ RTR  --- 45 tcp 1040 [0 0 0 0] ------- [0:0 1:0 32 0] [28 0] 0 0
s 1.287303646 _0_ RTR  --- 45 tcp 1060 [0 0 0 0] ------- [0:0 1:0 32 1] [28 0] 0 0
r 1.287592651 _1_ MAC  --- 0 ACK 38 [0 1 0 0] 
s 1.287642651 _1_ MAC  --- 0 RTS 44 [62e 0 1 0] 
r 1.287994657 _0_ MAC  --- 0 RTS 44 [62e 0 1 0] 
s 1.288004657 _0_ MAC  --- 0 CTS 38 [4f4 1 0 0] 
r 1.288308663 _1_ MAC  --- 0 CTS 38 [4f4 1 0 0] 
s 1.288318663 _1_ MAC  --- 43 ack 118 [13a 0 1 800] ------- [1:0 0:0 32 0] [14 0] 0 0
r 1.289262669 _0_ MAC  --- 43 ack 60 [13a 0 1 800] ------- [1:0 0:0 32 0] [14 0] 1 0
s 1.289272669 _0_ MAC  --- 0 ACK 38 [0 1 0 0] 
r 1.289287669 _0_ AGT  --- 43 ack 60 [13a 0 1 800] ------- [1:0 0:0 32 0] [14 0] 1 0
s 1.289287669 _0_ AGT  --- 46 tcp 1040 [0 0 0 0] ------- [0:0 1:0 32 0] [29 0] 0 0
r 1.289287669 _0_ RTR  --- 46 tcp 1040 [0 0 0 0] ------- [0:0 1:0 32 0] [29 0] 0 0
s 1.289287669 _0_ RTR  --- 46 tcp 1060 [0 0 0 0] ------- [0:0 1:0 32 1] [29 0] 0 0
s 1.289287669 _0_ AGT  --- 47 tcp 1040 [0 0 0 0] ------- [0:0 1:0 32 0] [30 0] 0 0
r 1.289287669 _0_ RTR  --- 47 tcp 1040 [0 0 0 0] ------- [0:0 1:0 32 0] [30 0] 0 0
s 1.289287669 _0_ RTR  --- 47 tcp 1060 [0 0 0 0] ------- [0:0 1:0 32 1] [30 0] 0 0
r 1.289576674 _1_ MAC  --- 0 ACK 38 [0 1 0 0] 
s 1.289646669 _0_ MAC  --- 0 RTS 44 [256e 1 0 0] 
r 1.289998674 _1_ MAC  --- 0 RTS 44 [256e 1 0 0] 
s 1.290008674 _1_ MAC  --- 0 CTS 38 [2434 0 0 0] 
r 1.290312680 _0_ MAC  --- 0 CTS 38 [2434 0 0 0] 
s 1.290322680 _0_ MAC  --- 25 tcp 1118 [13a 1 0 800] ------- [0:0 1:0 32 1] [15 0] 0 0
r 1.299266686 _1_ MAC  --- 25 tcp 1060 [13a 1 0 800] ------- [0:0 1:0 32 1] [15 0] 1 0
s 1.299276686 _1_ MAC  --- 0 ACK 38 [0 0 0 0] 
r 1.299291686 _1_ AGT  --- 25 tcp 1060 [13a 1 0 800] ------- [0:0 1:0 32 1] [15 0] 1 0
s 1.299291686 _1_ AGT  --- 48 ack 40 [0 0 0 0] ------- [1:0 0:0 32 0] [15 0] 0 0
r 1.299291686 _1_ RTR  --- 48 ack 40 [0 0 0 0] ------- [1:0 0:0 32 0] [15 0] 0 0
s 1.299291686 _1_ RTR  --- 48 ack 60 [0 0 0 0] ------- [1:0 0:0 32 0] [15 0] 0 0
r 1.299580692 _0_ MAC  --- 0 ACK 38 [0 0 0 0] 