+ 0.1 0 1 tcp 40 ------- 1 0.0 1.0 0 0
- 0.1 0 1 tcp 40 ------- 1 0.0 1.0 0 0
r 0.110032 0 1 tcp 40 ------- 1 0.0 1.0 0 0
+ 0.110032 1 0 ack 40 ------- 1 1.0 0.0 0 1
- 0.110032 1 0 ack 40 ------- 1 1.0 0.0 0 1
r 0.120064 1 0 ack 40 ------- 1 1.0 0.0 0 1
+ 0.120064 0 1 tcp 1540 ------- 1 0.0 1.0 1 2
- 0.120064 0 1 tcp 1540 ------- 1 0.0 1.0 1 2
+ 0.120064 0 1 tcp 1540 ------- 1 0.0 1.0 2 3
- 0.121296 0 1 tcp 1540 ------- 1 0.0 1.0 2 3
r 0.131296 0 1 tcp 1540 ------- 1 0.0 1.0 1 2
+ 0.131296 1 0 ack 40 ------- 1 1.0 0.0 1 4
- 0.131296 1 0 ack 40 ------- 1 1.0 0.0 1 4
r 0.132528 0 1 tcp 1540 ------- 1 0.0 1.0 2 3
+ 0.132528 1 0 ack 40 ------- 1 1.0 0.0 2 5
- 0.132528 1 0 ack 40 ------- 1 1.0 0.0 2 5
r 0.141328 1 0 ack 40 ------- 1 1.0 0.0 1 4
+ 0.141328 0 1 tcp 1540 ------- 1 0.0 1.0 3 6
- 0.141328 0 1 tcp 1540 ------- 1 0.0 1.0 3 6
+ 0.141328 0 1 tcp 1540 ------- 1 0.0 1.0 4 7
r 0.14256 1 0 ack 40 ------- 1 1.0 0.0 2 5
+ 0.14256 0 1 tcp 1540 ------- 1 0.0 1.0 5 8
+ 0.14256 0 1 tcp 1540 ------- 1 0.0 1.0 6 9
- 0.14256 0 1 tcp 1540 ------- 1 0.0 1.0 4 7
- 0.143792 0 1 tcp 1540 ------- 1 0.0 1.0 5 8
- 0.145024 0 1 tcp 1540 ------- 1 0.0 1.0 6 9
r 0.15256 0 1 tcp 1540 ------- 1 0.0 1.0 3 6
+ 0.15256 1 0 ack 40 ------- 1 1.0 0.0 3 10
- 0.15256 1 0 ack 40 ------- 1 1.0 0.0 3 10
r 0.153792 0 1 tcp 1540 ------- 1 0.0 1.0 4 7
+ 0.153792 1 0 ack 40 ------- 1 1.0 0.0 4 11
- 0.153792 1 0 ack 40 ------- 1 1.0 0.0 4 11
r 0.155024 0 1 tcp 1540 ------- 1 0.0 1.0 5 8
+ 0.155024 1 0 ack 40 ------- 1 1.0 0.0 5 12
- 0.155024 1 0 ack 40 ------- 1 1.0 0.0 5 12
r 0.156256 0 1 tcp 1540 ------- 1 0.0 1.0 6 9
+ 0.156256 1 0 ack 40 ------- 1 1.0 0.0 6 13
- 0.156256 1 0 ack 40 ------- 1 1.0 0.0 6 13
r 0.162592 1 0 ack 40 ------- 1 1.0 0.0 3 10
+ 0.162592 0 1 tcp 1540 ------- 1 0.0 1.0 7 14
- 0.162592 0 1 tcp 1540 ------- 1 0.0 1.0 7 14
+ 0.162592 0 1 tcp 1540 ------- 1 0.0 1.0 8 15
r 0.163824 1 0 ack 40 ------- 1 1.0 0.0 4 11
+ 0.163824 0 1 tcp 1540 ------- 1 0.0 1.0 9 16
+ 0.163824 0 1 tcp 1540 ------- 1 0.0 1.0 10 17
- 0.163824 0 1 tcp 1540 ------- 1 0.0 1.0 8 15
r 0.165056 1 0 ack 40 ------- 1 1.0 0.0 5 12
+ 0.165056 0 1 tcp 1540 ------- 1 0.0 1.0 11 18
+ 0.165056 0 1 tcp 1540 ------- 1 0.0 1.0 12 19
- 0.165056 0 1 tcp 1540 ------- 1 0.0 1.0 9 16
r 0.166288 1 0 ack 40 ------- 1 1.0 0.0 6 13
+ 0.166288 0 1 tcp 1540 ------- 1 0.0 1.0 13 20
+ 0.166288 0 1 tcp 1540 ------- 1 0.0 1.0 14 21
- 0.166288 0 1 tcp 1540 ------- 1 0.0 1.0 10 17
- 0.16752 0 1 tcp 1540 ------- 1 0.0 1.0 11 18
- 0.168752 0 1 tcp 1540 ------- 1 0.0 1.0 12 19
- 0.169984 0 1 tcp 1540 ------- 1 0.0 1.0 13 20
- 0.171216 0 1 tcp 1540 ------- 1 0.0 1.0 14 21
r 0.173824 0 1 tcp 1540 ------- 1 0.0 1.0 7 14
+ 0.173824 1 0 ack 40 ------- 1 1.0 0.0 7 22
- 0.173824 1 0 ack 40 ------- 1 1.0 0.0 7 22
r 0.175056 0 1 tcp 1540 ------- 1 0.0 1.0 8 15
+ 0.175056 1 0 ack 40 ------- 1 1.0 0.0 8 23
- 0.175056 1 0 ack 40 ------- 1 1.0 0.0 8 23
r 0.176288 0 1 tcp 1540 ------- 1 0.0 1.0 9 16
+ 0.176288 1 0 ack 40 ------- 1 1.0 0.0 9 24
- 0.176288 1 0 ack 40 ------- 1 1.0 0.0 9 24
r 0.17752 0 1 tcp 1540 ------- 1 0.0 1.0 10 17
+ 0.17752 1 0 ack 40 ------- 1 1.0 0.0 10 25
- 0.17752 1 0 ack 40 ------- 1 1.0 0.0 10 25
r 0.178752 0 1 tcp 1540 ------- 1 0.0 1.0 11 18
+ 0.178752 1 0 ack 40 ------- 1 1.0 0.0 11 26
- 0.178752 1 0 ack 40 ------- 1 1.0 0.0 11 26
r 0.179984 0 1 tcp 1540 ------- 1 0.0 1.0 12 19
+ 0.179984 1 0 ack 40 ------- 1 1.0 0.0 12 27
- 0.179984 1 0 ack 40 ------- 1 1.0 0.0 12 27
r 0.181216 0 1 tcp 1540 ------- 1 0.0 1.0 13 20
+ 0.181216 1 0 ack 40 ------- 1 1.0 0.0 13 28
- 0.181216 1 0 ack 40 ------- 1 1.0 0.0 13 28
r 0.182448 0 1 tcp 1540 ------- 1 0.0 1.0 14 21
+ 0.182448 1 0 ack 40 ------- 1 1.0 0.0 14 29
- 0.182448 1 0 ack 40 ------- 1 1.0 0.0 14 29
r 0.183856 1 0 ack 40 ------- 1 1.0 0.0 7 22
+ 0.183856 0 1 tcp 1540 ------- 1 0.0 1.0 15 30
- 0.183856 0 1 tcp 1540 ------- 1 0.0 1.0 15 30
+ 0.183856 0 1 tcp 1540 ------- 1 0.0 1.0 16 31
r 0.185088 1 0 ack 40 ------- 1 1.0 0.0 8 23
+ 0.185088 0 1 tcp 1540 ------- 1 0.0 1.0 17 32
+ 0.185088 0 1 tcp 1540 ------- 1 0.0 1.0 18 33
- 0.185088 0 1 tcp 1540 ------- 1 0.0 1.0 16 31
r 0.18632 1 0 ack 40 ------- 1 1.0 0.0 9 24
+ 0.18632 0 1 tcp 1540 ------- 1 0.0 1.0 19 34
+ 0.18632 0 1 tcp 1540 ------- 1 0.0 1.0 20 35
- 0.18632 0 1 tcp 1540 ------- 1 0.0 1.0 17 32
r 0.187552 1 0 ack 40 ------- 1 1.0 0.0 10 25
+ 0.187552 0 1 tcp 1540 ------- 1 0.0 1.0 21 36
+ 0.187552 0 1 tcp 1540 ------- 1 0.0 1.0 22 37
- 0.187552 0 1 tcp 1540 ------- 1 0.0 1.0 18 33
r 0.188784 1 0 ack 40 ------- 1 1.0 0.0 11 26
+ 0.188784 0 1 tcp 1540 ------- 1 0.0 1.0 23 38
+ 0.188784 0 1 tcp 1540 ------- 1 0.0 1.0 24 39
- 0.188784 0 1 tcp 1540 ------- 1 0.0 1.0 19 34
r 0.190016 1 0 ack 40 ------- 1 1.0 0.0 12 27
+ 0.190016 0 1 tcp 1540 ------- 1 0.0 1.0 25 40
+ 0.190016 0 1 tcp 1540 ------- 1 0.0 1.0 26 41
- 0.190016 0 1 tcp 1540 ------- 1 0.0 1.0 20 35
r 0.191248 1 0 ack 40 ------- 1 1.0 0.0 13 28
+ 0.191248 0 1 tcp 1540 ------- 1 0.0 1.0 27 42
+ 0.191248 0 1 tcp 1540 ------- 1 0.0 1.0 28 43
- 0.191248 0 1 tcp 1540 ------- 1 0.0 1.0 21 36
r 0.19248 1 0 ack 40 ------- 1 1.0 0.0 14 29
+ 0.19248 0 1 tcp 1540 ------- 1 0.0 1.0 29 44
+ 0.19248 0 1 tcp 1540 ------- 1 0.0 1.0 30 45
- 0.19248 0 1 tcp 1540 ------- 1 0.0 1.0 22 37
- 0.193712 0 1 tcp 1540 ------- 1 0.0 1.0 23 38
- 0.194944 0 1 tcp 1540 ------- 1 0.0 1.0 24 39
r 0.195088 0 1 tcp 1540 ------- 1 0.0 1.0 15 30
+ 0.195088 1 0 ack 40 ------- 1 1.0 0.0 15 46
- 0.195088 1 0 ack 40 ------- 1 1.0 0.0 15 46
- 0.196176 0 1 tcp 1540 ------- 1 0.0 1.0 25 40
r 0.19632 0 1 tcp 1540 ------- 1 0.0 1.0 16 31
+ 0.19632 1 0 ack 40 ------- 1 1.0 0.0 16 47
- 0.19632 1 0 ack 40 ------- 1 1.0 0.0 16 47
- 0.197408 0 1 tcp 1540 ------- 1 0.0 1.0 26 41
r 0.197552 0 1 tcp 1540 ------- 1 0.0 1.0 17 32
+ 0.197552 1 0 ack 40 ------- 1 1.0 0.0 17 48
- 0.197552 1 0 ack 40 ------- 1 1.0 0.0 17 48
- 0.19864 0 1 tcp 1540 ------- 1 0.0 1.0 27 42
r 0.198784 0 1 tcp 1540 ------- 1 0.0 1.0 18 33
+ 0.198784 1 0 ack 40 ------- 1 1.0 0.0 18 49
- 0.198784 1 0 ack 40 ------- 1 1.0 0.0 18 49
- 0.199872 0 1 tcp 1540 ------- 1 0.0 1.0 28 43
r 0.200016 0 1 tcp 1540 ------- 1 0.0 1.0 19 34
+ 0.200016 1 0 ack 40 ------- 1 1.0 0.0 19 50
- 0.200016 1 0 ack 40 ------- 1 1.0 0.0 19 50
- 0.201104 0 1 tcp 1540 ------- 1 0.0 1.0 29 44
r 0.201248 0 1 tcp 1540 ------- 1 0.0 1.0 20 35
+ 0.201248 1 0 ack 40 ------- 1 1.0 0.0 20 51
- 0.201248 1 0 ack 40 ------- 1 1.0 0.0 20 51
- 0.202336 0 1 tcp 1540 ------- 1 0.0 1.0 30 45
r 0.20248 0 1 tcp 1540 ------- 1 0.0 1.0 21 36
+ 0.20248 1 0 ack 40 ------- 1 1.0 0.0 21 52
- 0.20248 1 0 ack 40 ------- 1 1.0 0.0 21 52
r 0.203712 0 1 tcp 1540 ------- 1 0.0 1.0 22 37
+ 0.203712 1 0 ack 40 ------- 1 1.0 0.0 22 53
- 0.203712 1 0 ack 40 ------- 1 1.0 0.0 22 53
r 0.204944 0 1 tcp 1540 ------- 1 0.0 1.0 23 38
+ 0.204944 1 0 ack 40 ------- 1 1.0 0.0 23 54
- 0.204944 1 0 ack 40 ------- 1 1.0 0.0 23 54
r 0.20512 1 0 ack 40 ------- 1 1.0 0.0 15 46
+ 0.20512 0 1 tcp 1540 ------- 1 0.0 1.0 31 55
- 0.20512 0 1 tcp 1540 ------- 1 0.0 1.0 31 55
+ 0.20512 0 1 tcp 1540 ------- 1 0.0 1.0 32 56
r 0.206176 0 1 tcp 1540 ------- 1 0.0 1.0 24 39
+ 0.206176 1 0 ack 40 ------- 1 1.0 0.0 24 57
- 0.206176 1 0 ack 40 ------- 1 1.0 0.0 24 57
r 0.206352 1 0 ack 40 ------- 1 1.0 0.0 16 47
+ 0.206352 0 1 tcp 1540 ------- 1 0.0 1.0 33 58
+ 0.206352 0 1 tcp 1540 ------- 1 0.0 1.0 34 59
- 0.206352 0 1 tcp 1540 ------- 1 0.0 1.0 32 56
r 0.207408 0 1 tcp 1540 ------- 1 0.0 1.0 25 40
+ 0.207408 1 0 ack 40 ------- 1 1.0 0.0 25 60
- 0.207408 1 0 ack 40 ------- 1 1.0 0.0 25 60
r 0.207584 1 0 ack 40 ------- 1 1.0 0.0 17 48
+ 0.207584 0 1 tcp 1540 ------- 1 0.0 1.0 35 61
+ 0.207584 0 1 tcp 1540 ------- 1 0.0 1.0 36 62
- 0.207584 0 1 tcp 1540 ------- 1 0.0 1.0 33 58
r 0.20864 0 1 tcp 1540 ------- 1 0.0 1.0 26 41
+ 0.20864 1 0 ack 40 ------- 1 1.0 0.0 26 63
- 0.20864 1 0 ack 40 ------- 1 1.0 0.0 26 63
r 0.208816 1 0 ack 40 ------- 1 1.0 0.0 18 49
+ 0.208816 0 1 tcp 1540 ------- 1 0.0 1.0 37 64
+ 0.208816 0 1 tcp 1540 ------- 1 0.0 1.0 38 65
- 0.208816 0 1 tcp 1540 ------- 1 0.0 1.0 34 59
r 0.209872 0 1 tcp 1540 ------- 1 0.0 1.0 27 42
+ 0.209872 1 0 ack 40 ------- 1 1.0 0.0 27 66
- 0.209872 1 0 ack 40 ------- 1 1.0 0.0 27 66
r 0.210048 1 0 ack 40 ------- 1 1.0 0.0 19 50
+ 0.210048 0 1 tcp 1540 ------- 1 0.0 1.0 39 67
- 0.210048 0 1 tcp 1540 ------- 1 0.0 1.0 35 61
r 0.211104 0 1 tcp 1540 ------- 1 0.0 1.0 28 43
+ 0.211104 1 0 ack 40 ------- 1 1.0 0.0 28 68
- 0.211104 1 0 ack 40 ------- 1 1.0 0.0 28 68
r 0.21128 1 0 ack 40 ------- 1 1.0 0.0 20 51
+ 0.21128 0 1 tcp 1540 ------- 1 0.0 1.0 40 69
- 0.21128 0 1 tcp 1540 ------- 1 0.0 1.0 36 62
r 0.212336 0 1 tcp 1540 ------- 1 0.0 1.0 29 44
+ 0.212336 1 0 ack 40 ------- 1 1.0 0.0 29 70
- 0.212336 1 0 ack 40 ------- 1 1.0 0.0 29 70
r 0.212512 1 0 ack 40 ------- 1 1.0 0.0 21 52
+ 0.212512 0 1 tcp 1540 ------- 1 0.0 1.0 41 71
- 0.212512 0 1 tcp 1540 ------- 1 0.0 1.0 37 64
r 0.213568 0 1 tcp 1540 ------- 1 0.0 1.0 30 45
+ 0.213568 1 0 ack 40 ------- 1 1.0 0.0 30 72
- 0.213568 1 0 ack 40 ------- 1 1.0 0.0 30 72
r 0.213744 1 0 ack 40 ------- 1 1.0 0.0 22 53
+ 0.213744 0 1 tcp 1540 ------- 1 0.0 1.0 42 73
- 0.213744 0 1 tcp 1540 ------- 1 0.0 1.0 38 65
r 0.214976 1 0 ack 40 ------- 1 1.0 0.0 23 54
+ 0.214976 0 1 tcp 1540 ------- 1 0.0 1.0 43 74
- 0.214976 0 1 tcp 1540 ------- 1 0.0 1.0 39 67
r 0.216208 1 0 ack 40 ------- 1 1.0 0.0 24 57
+ 0.216208 0 1 tcp 1540 ------- 1 0.0 1.0 44 75
- 0.216208 0 1 tcp 1540 ------- 1 0.0 1.0 40 69
r 0.216352 0 1 tcp 1540 ------- 1 0.0 1.0 31 55
+ 0.216352 1 0 ack 40 ------- 1 1.0 0.0 31 76
- 0.216352 1 0 ack 40 ------- 1 1.0 0.0 31 76
r 0.21744 1 0 ack 40 ------- 1 1.0 0.0 25 60
+ 0.21744 0 1 tcp 1540 ------- 1 0.0 1.0 45 77
- 0.21744 0 1 tcp 1540 ------- 1 0.0 1.0 41 71
r 0.217584 0 1 tcp 1540 ------- 1 0.0 1.0 32 56
+ 0.217584 1 0 ack 40 ------- 1 1.0 0.0 32 78
- 0.217584 1 0 ack 40 ------- 1 1.0 0.0 32 78
r 0.218672 1 0 ack 40 ------- 1 1.0 0.0 26 63
+ 0.218672 0 1 tcp 1540 ------- 1 0.0 1.0 46 79
- 0.218672 0 1 tcp 1540 ------- 1 0.0 1.0 42 73
r 0.218816 0 1 tcp 1540 ------- 1 0.0 1.0 33 58
+ 0.218816 1 0 ack 40 ------- 1 1.0 0.0 33 80
- 0.218816 1 0 ack 40 ------- 1 1.0 0.0 33 80
r 0.219904 1 0 ack 40 ------- 1 1.0 0.0 27 66
+ 0.219904 0 1 tcp 1540 ------- 1 0.0 1.0 47 81
- 0.219904 0 1 tcp 1540 ------- 1 0.0 1.0 43 74
r 0.220048 0 1 tcp 1540 ------- 1 0.0 1.0 34 59
+ 0.220048 1 0 ack 40 ------- 1 1.0 0.0 34 82
- 0.220048 1 0 ack 40 ------- 1 1.0 0.0 34 82
r 0.221136 1 0 ack 40 ------- 1 1.0 0.0 28 68
+ 0.221136 0 1 tcp 1540 ------- 1 0.0 1.0 48 83
- 0.221136 0 1 tcp 1540 ------- 1 0.0 1.0 44 75
r 0.22128 0 1 tcp 1540 ------- 1 0.0 1.0 35 61
+ 0.22128 1 0 ack 40 ------- 1 1.0 0.0 35 84
- 0.22128 1 0 ack 40 ------- 1 1.0 0.0 35 84
r 0.222368 1 0 ack 40 ------- 1 1.0 0.0 29 70
+ 0.222368 0 1 tcp 1540 ------- 1 0.0 1.0 49 85
- 0.222368 0 1 tcp 1540 ------- 1 0.0 1.0 45 77
r 0.222512 0 1 tcp 1540 ------- 1 0.0 1.0 36 62
+ 0.222512 1 0 ack 40 ------- 1 1.0 0.0 36 86
- 0.222512 1 0 ack 40 ------- 1 1.0 0.0 36 86
r 0.2236 1 0 ack 40 ------- 1 1.0 0.0 30 72
+ 0.2236 0 1 tcp 1540 ------- 1 0.0 1.0 50 87
- 0.2236 0 1 tcp 1540 ------- 1 0.0 1.0 46 79
r 0.223744 0 1 tcp 1540 ------- 1 0.0 1.0 37 64
+ 0.223744 1 0 ack 40 ------- 1 1.0 0.0 37 88
- 0.223744 1 0 ack 40 ------- 1 1.0 0.0 37 88
- 0.224832 0 1 tcp 1540 ------- 1 0.0 1.0 47 81
r 0.224976 0 1 tcp 1540 ------- 1 0.0 1.0 38 65
+ 0.224976 1 0 ack 40 ------- 1 1.0 0.0 38 89
- 0.224976 1 0 ack 40 ------- 1 1.0 0.0 38 89
- 0.226064 0 1 tcp 1540 ------- 1 0.0 1.0 48 83
r 0.226208 0 1 tcp 1540 ------- 1 0.0 1.0 39 67
+ 0.226208 1 0 ack 40 ------- 1 1.0 0.0 39 90
- 0.226208 1 0 ack 40 ------- 1 1.0 0.0 39 90
r 0.226384 1 0 ack 40 ------- 1 1.0 0.0 31 76
+ 0.226384 0 1 tcp 1540 ------- 1 0.0 1.0 51 91
- 0.227296 0 1 tcp 1540 ------- 1 0.0 1.0 49 85
r 0.22744 0 1 tcp 1540 ------- 1 0.0 1.0 40 69
+ 0.22744 1 0 ack 40 ------- 1 1.0 0.0 40 92
- 0.22744 1 0 ack 40 ------- 1 1.0 0.0 40 92
r 0.227616 1 0 ack 40 ------- 1 1.0 0.0 32 78
+ 0.227616 0 1 tcp 1540 ------- 1 0.0 1.0 52 93
- 0.228528 0 1 tcp 1540 ------- 1 0.0 1.0 50 87
r 0.228672 0 1 tcp 1540 ------- 1 0.0 1.0 41 71
+ 0.228672 1 0 ack 40 ------- 1 1.0 0.0 41 94
- 0.228672 1 0 ack 40 ------- 1 1.0 0.0 41 94
r 0.228848 1 0 ack 40 ------- 1 1.0 0.0 33 80
+ 0.228848 0 1 tcp 1540 ------- 1 0.0 1.0 53 95
- 0.22976 0 1 tcp 1540 ------- 1 0.0 1.0 51 91
r 0.229904 0 1 tcp 1540 ------- 1 0.0 1.0 42 73
+ 0.229904 1 0 ack 40 ------- 1 1.0 0.0 42 96
- 0.229904 1 0 ack 40 ------- 1 1.0 0.0 42 96
r 0.23008 1 0 ack 40 ------- 1 1.0 0.0 34 82
+ 0.23008 0 1 tcp 1540 ------- 1 0.0 1.0 54 97
- 0.230992 0 1 tcp 1540 ------- 1 0.0 1.0 52 93
r 0.231136 0 1 tcp 1540 ------- 1 0.0 1.0 43 74
+ 0.231136 1 0 ack 40 ------- 1 1.0 0.0 43 98
- 0.231136 1 0 ack 40 ------- 1 1.0 0.0 43 98
r 0.231312 1 0 ack 40 ------- 1 1.0 0.0 35 84
+ 0.231312 0 1 tcp 1540 ------- 1 0.0 1.0 55 99
- 0.232224 0 1 tcp 1540 ------- 1 0.0 1.0 53 95
r 0.232368 0 1 tcp 1540 ------- 1 0.0 1.0 44 75
+ 0.232368 1 0 ack 40 ------- 1 1.0 0.0 44 100
- 0.232368 1 0 ack 40 ------- 1 1.0 0.0 44 100
r 0.232544 1 0 ack 40 ------- 1 1.0 0.0 36 86
+ 0.232544 0 1 tcp 1540 ------- 1 0.0 1.0 56 101
- 0.233456 0 1 tcp 1540 ------- 1 0.0 1.0 54 97
r 0.2336 0 1 tcp 1540 ------- 1 0.0 1.0 45 77
+ 0.2336 1 0 ack 40 ------- 1 1.0 0.0 45 102
- 0.2336 1 0 ack 40 ------- 1 1.0 0.0 45 102
r 0.233776 1 0 ack 40 ------- 1 1.0 0.0 37 88
+ 0.233776 0 1 tcp 1540 ------- 1 0.0 1.0 57 103
- 0.234688 0 1 tcp 1540 ------- 1 0.0 1.0 55 99
r 0.234832 0 1 tcp 1540 ------- 1 0.0 1.0 46 79
+ 0.234832 1 0 ack 40 ------- 1 1.0 0.0 46 104
- 0.234832 1 0 ack 40 ------- 1 1.0 0.0 46 104
r 0.235008 1 0 ack 40 ------- 1 1.0 0.0 38 89
+ 0.235008 0 1 tcp 1540 ------- 1 0.0 1.0 58 105
- 0.23592 0 1 tcp 1540 ------- 1 0.0 1.0 56 101
r 0.236064 0 1 tcp 1540 ------- 1 0.0 1.0 47 81
+ 0.236064 1 0 ack 40 ------- 1 1.0 0.0 47 106
- 0.236064 1 0 ack 40 ------- 1 1.0 0.0 47 106
r 0.23624 1 0 ack 40 ------- 1 1.0 0.0 39 90
+ 0.23624 0 1 tcp 1540 ------- 1 0.0 1.0 59 107
- 0.237152 0 1 tcp 1540 ------- 1 0.0 1.0 57 103
r 0.237296 0 1 tcp 1540 ------- 1 0.0 1.0 48 83
+ 0.237296 1 0 ack 40 ------- 1 1.0 0.0 48 108
- 0.237296 1 0 ack 40 ------- 1 1.0 0.0 48 108
r 0.237472 1 0 ack 40 ------- 1 1.0 0.0 40 92
+ 0.237472 0 1 tcp 1540 ------- 1 0.0 1.0 60 109
- 0.238384 0 1 tcp 1540 ------- 1 0.0 1.0 58 105
r 0.238528 0 1 tcp 1540 ------- 1 0.0 1.0 49 85
+ 0.238528 1 0 ack 40 ------- 1 1.0 0.0 49 110
- 0.238528 1 0 ack 40 ------- 1 1.0 0.0 49 110
r 0.238704 1 0 ack 40 ------- 1 1.0 0.0 41 94
+ 0.238704 0 1 tcp 1540 ------- 1 0.0 1.0 61 111
- 0.239616 0 1 tcp 1540 ------- 1 0.0 1.0 59 107
r 0.23976 0 1 tcp 1540 ------- 1 0.0 1.0 50 87
+ 0.23976 1 0 ack 40 ------- 1 1.0 0.0 50 112
- 0.23976 1 0 ack 40 ------- 1 1.0 0.0 50 112
r 0.239936 1 0 ack 40 ------- 1 1.0 0.0 42 96
+ 0.239936 0 1 tcp 1540 ------- 1 0.0 1.0 62 113
- 0.240848 0 1 tcp 1540 ------- 1 0.0 1.0 60 109
r 0.240992 0 1 tcp 1540 ------- 1 0.0 1.0 51 91
+ 0.240992 1 0 ack 40 ------- 1 1.0 0.0 51 114
- 0.240992 1 0 ack 40 ------- 1 1.0 0.0 51 114
r 0.241168 1 0 ack 40 ------- 1 1.0 0.0 43 98
+ 0.241168 0 1 tcp 1540 ------- 1 0.0 1.0 63 115
- 0.24208 0 1 tcp 1540 ------- 1 0.0 1.0 61 111
r 0.242224 0 1 tcp 1540 ------- 1 0.0 1.0 52 93
+ 0.242224 1 0 ack 40 ------- 1 1.0 0.0 52 116
- 0.242224 1 0 ack 40 ------- 1 1.0 0.0 52 116
r 0.2424 1 0 ack 40 ------- 1 1.0 0.0 44 100
+ 0.2424 0 1 tcp 1540 ------- 1 0.0 1.0 64 117
- 0.243312 0 1 tcp 1540 ------- 1 0.0 1.0 62 113
r 0.243456 0 1 tcp 1540 ------- 1 0.0 1.0 53 95
+ 0.243456 1 0 ack 40 ------- 1 1.0 0.0 53 118
- 0.243456 1 0 ack 40 ------- 1 1.0 0.0 53 118
r 0.243632 1 0 ack 40 ------- 1 1.0 0.0 45 102
+ 0.243632 0 1 tcp 1540 ------- 1 0.0 1.0 65 119
- 0.244544 0 1 tcp 1540 ------- 1 0.0 1.0 63 115
r 0.244688 0 1 tcp 1540 ------- 1 0.0 1.0 54 97
+ 0.244688 1 0 ack 40 ------- 1 1.0 0.0 54 120
- 0.244688 1 0 ack 40 ------- 1 1.0 0.0 54 120
r 0.244864 1 0 ack 40 ------- 1 1.0 0.0 46 104
+ 0.244864 0 1 tcp 1540 ------- 1 0.0 1.0 66 121
- 0.245776 0 1 tcp 1540 ------- 1 0.0 1.0 64 117
r 0.24592 0 1 tcp 1540 ------- 1 0.0 1.0 55 99
+ 0.24592 1 0 ack 40 ------- 1 1.0 0.0 55 122
- 0.24592 1 0 ack 40 ------- 1 1.0 0.0 55 122
r 0.246096 1 0 ack 40 ------- 1 1.0 0.0 47 106
+ 0.246096 0 1 tcp 1540 ------- 1 0.0 1.0 67 123
- 0.247008 0 1 tcp 1540 ------- 1 0.0 1.0 65 119
r 0.247152 0 1 tcp 1540 ------- 1 0.0 1.0 56 101
+ 0.247152 1 0 ack 40 ------- 1 1.0 0.0 56 124
- 0.247152 1 0 ack 40 ------- 1 1.0 0.0 56 124
r 0.247328 1 0 ack 40 ------- 1 1.0 0.0 48 108
+ 0.247328 0 1 tcp 1540 ------- 1 0.0 1.0 68 125
- 0.24824 0 1 tcp 1540 ------- 1 0.0 1.0 66 121
r 0.248384 0 1 tcp 1540 ------- 1 0.0 1.0 57 103
+ 0.248384 1 0 ack 40 ------- 1 1.0 0.0 57 126
- 0.248384 1 0 ack 40 ------- 1 1.0 0.0 57 126
r 0.24856 1 0 ack 40 ------- 1 1.0 0.0 49 110
+ 0.24856 0 1 tcp 1540 ------- 1 0.0 1.0 69 127
- 0.249472 0 1 tcp 1540 ------- 1 0.0 1.0 67 123
r 0.249616 0 1 tcp 1540 ------- 1 0.0 1.0 58 105
+ 0.249616 1 0 ack 40 ------- 1 1.0 0.0 58 128
- 0.249616 1 0 ack 40 ------- 1 1.0 0.0 58 128
r 0.249792 1 0 ack 40 ------- 1 1.0 0.0 50 112
+ 0.249792 0 1 tcp 1540 ------- 1 0.0 1.0 70 129
- 0.250704 0 1 tcp 1540 ------- 1 0.0 1.0 68 125
r 0.250848 0 1 tcp 1540 ------- 1 0.0 1.0 59 107
+ 0.250848 1 0 ack 40 ------- 1 1.0 0.0 59 130
- 0.250848 1 0 ack 40 ------- 1 1.0 0.0 59 130
r 0.251024 1 0 ack 40 ------- 1 1.0 0.0 51 114
+ 0.251024 0 1 tcp 1540 ------- 1 0.0 1.0 71 131
- 0.251936 0 1 tcp 1540 ------- 1 0.0 1.0 69 127
r 0.25208 0 1 tcp 1540 ------- 1 0.0 1.0 60 109
+ 0.25208 1 0 ack 40 ------- 1 1.0 0.0 60 132
- 0.25208 1 0 ack 40 ------- 1 1.0 0.0 60 132
r 0.252256 1 0 ack 40 ------- 1 1.0 0.0 52 116
+ 0.252256 0 1 tcp 1540 ------- 1 0.0 1.0 72 133
- 0.253168 0 1 tcp 1540 ------- 1 0.0 1.0 70 129
r 0.253312 0 1 tcp 1540 ------- 1 0.0 1.0 61 111
+ 0.253312 1 0 ack 40 ------- 1 1.0 0.0 61 134
- 0.253312 1 0 ack 40 ------- 1 1.0 0.0 61 134
r 0.253488 1 0 ack 40 ------- 1 1.0 0.0 53 118
+ 0.253488 0 1 tcp 1540 ------- 1 0.0 1.0 73 135
- 0.2544 0 1 tcp 1540 ------- 1 0.0 1.0 71 131
r 0.254544 0 1 tcp 1540 ------- 1 0.0 1.0 62 113
+ 0.254544 1 0 ack 40 ------- 1 1.0 0.0 62 136
- 0.254544 1 0 ack 40 ------- 1 1.0 0.0 62 136
r 0.25472 1 0 ack 40 ------- 1 1.0 0.0 54 120
+ 0.25472 0 1 tcp 1540 ------- 1 0.0 1.0 74 137
- 0.255632 0 1 tcp 1540 ------- 1 0.0 1.0 72 133
r 0.255776 0 1 tcp 1540 ------- 1 0.0 1.0 63 115
+ 0.255776 1 0 ack 40 ------- 1 1.0 0.0 63 138
- 0.255776 1 0 ack 40 ------- 1 1.0 0.0 63 138
r 0.255952 1 0 ack 40 ------- 1 1.0 0.0 55 122
+ 0.255952 0 1 tcp 1540 ------- 1 0.0 1.0 75 139
- 0.256864 0 1 tcp 1540 ------- 1 0.0 1.0 73 135
r 0.257008 0 1 tcp 1540 ------- 1 0.0 1.0 64 117
+ 0.257008 1 0 ack 40 ------- 1 1.0 0.0 64 140
- 0.257008 1 0 ack 40 ------- 1 1.0 0.0 64 140
r 0.257184 1 0 ack 40 ------- 1 1.0 0.0 56 124
+ 0.257184 0 1 tcp 1540 ------- 1 0.0 1.0 76 141
- 0.258096 0 1 tcp 1540 ------- 1 0.0 1.0 74 137
r 0.25824 0 1 tcp 1540 ------- 1 0.0 1.0 65 119
+ 0.25824 1 0 ack 40 ------- 1 1.0 0.0 65 142
- 0.25824 1 0 ack 40 ------- 1 1.0 0.0 65 142
r 0.258416 1 0 ack 40 ------- 1 1.0 0.0 57 126
+ 0.258416 0 1 tcp 1540 ------- 1 0.0 1.0 77 143
- 0.259328 0 1 tcp 1540 ------- 1 0.0 1.0 75 139
r 0.259472 0 1 tcp 1540 ------- 1 0.0 1.0 66 121
+ 0.259472 1 0 ack 40 ------- 1 1.0 0.0 66 144
- 0.259472 1 0 ack 40 ------- 1 1.0 0.0 66 144
r 0.259648 1 0 ack 40 ------- 1 1.0 0.0 58 128
+ 0.259648 0 1 tcp 1540 ------- 1 0.0 1.0 78 145
- 0.26056 0 1 tcp 1540 ------- 1 0.0 1.0 76 141
r 0.260704 0 1 tcp 1540 ------- 1 0.0 1.0 67 123
+ 0.260704 1 0 ack 40 ------- 1 1.0 0.0 67 146
- 0.260704 1 0 ack 40 ------- 1 1.0 0.0 67 146
r 0.26088 1 0 ack 40 ------- 1 1.0 0.0 59 130
+ 0.26088 0 1 tcp 1540 ------- 1 0.0 1.0 79 147
- 0.261792 0 1 tcp 1540 ------- 1 0.0 1.0 77 143
r 0.261936 0 1 tcp 1540 ------- 1 0.0 1.0 68 125
+ 0.261936 1 0 ack 40 ------- 1 1.0 0.0 68 148
- 0.261936 1 0 ack 40 ------- 1 1.0 0.0 68 148
r 0.262112 1 0 ack 40 ------- 1 1.0 0.0 60 132
+ 0.262112 0 1 tcp 1540 ------- 1 0.0 1.0 80 149
- 0.263024 0 1 tcp 1540 ------- 1 0.0 1.0 78 145
r 0.263168 0 1 tcp 1540 ------- 1 0.0 1.0 69 127
+ 0.263168 1 0 ack 40 ------- 1 1.0 0.0 69 150
- 0.263168 1 0 ack 40 ------- 1 1.0 0.0 69 150
r 0.263344 1 0 ack 40 ------- 1 1.0 0.0 61 134
+ 0.263344 0 1 tcp 1540 ------- 1 0.0 1.0 81 151
- 0.264256 0 1 tcp 1540 ------- 1 0.0 1.0 79 147
r 0.2644 0 1 tcp 1540 ------- 1 0.0 1.0 70 129
+ 0.2644 1 0 ack 40 ------- 1 1.0 0.0 70 152
- 0.2644 1 0 ack 40 ------- 1 1.0 0.0 70 152
r 0.264576 1 0 ack 40 ------- 1 1.0 0.0 62 136
+ 0.264576 0 1 tcp 1540 ------- 1 0.0 1.0 82 153
- 0.265488 0 1 tcp 1540 ------- 1 0.0 1.0 80 149
r 0.265632 0 1 tcp 1540 ------- 1 0.0 1.0 71 131
+ 0.265632 1 0 ack 40 ------- 1 1.0 0.0 71 154
- 0.265632 1 0 ack 40 ------- 1 1.0 0.0 71 154
r 0.265808 1 0 ack 40 ------- 1 1.0 0.0 63 138
+ 0.265808 0 1 tcp 1540 ------- 1 0.0 1.0 83 155
- 0.26672 0 1 tcp 1540 ------- 1 0.0 1.0 81 151
r 0.266864 0 1 tcp 1540 ------- 1 0.0 1.0 72 133
+ 0.266864 1 0 ack 40 ------- 1 1.0 0.0 72 156
- 0.266864 1 0 ack 40 ------- 1 1.0 0.0 72 156
r 0.26704 1 0 ack 40 ------- 1 1.0 0.0 64 140
+ 0.26704 0 1 tcp 1540 ------- 1 0.0 1.0 84 157
- 0.267952 0 1 tcp 1540 ------- 1 0.0 1.0 82 153
r 0.268096 0 1 tcp 1540 ------- 1 0.0 1.0 73 135
+ 0.268096 1 0 ack 40 ------- 1 1.0 0.0 73 158
- 0.268096 1 0 ack 40 ------- 1 1.0 0.0 73 158
r 0.268272 1 0 ack 40 ------- 1 1.0 0.0 65 142
+ 0.268272 0 1 tcp 1540 ------- 1 0.0 1.0 85 159
- 0.269184 0 1 tcp 1540 ------- 1 0.0 1.0 83 155
r 0.269328 0 1 tcp 1540 ------- 1 0.0 1.0 74 137
+ 0.269328 1 0 ack 40 ------- 1 1.0 0.0 74 160
- 0.269328 1 0 ack 40 ------- 1 1.0 0.0 74 160
r 0.269504 1 0 ack 40 ------- 1 1.0 0.0 66 144
+ 0.269504 0 1 tcp 1540 ------- 1 0.0 1.0 86 161
- 0.270416 0 1 tcp 1540 ------- 1 0.0 1.0 84 157
r 0.27056 0 1 tcp 1540 ------- 1 0.0 1.0 75 139
+ 0.27056 1 0 ack 40 ------- 1 1.0 0.0 75 162
- 0.27056 1 0 ack 40 ------- 1 1.0 0.0 75 162
r 0.270736 1 0 ack 40 ------- 1 1.0 0.0 67 146
+ 0.270736 0 1 tcp 1540 ------- 1 0.0 1.0 87 163
- 0.271648 0 1 tcp 1540 ------- 1 0.0 1.0 85 159
r 0.271792 0 1 tcp 1540 ------- 1 0.0 1.0 76 141
+ 0.271792 1 0 ack 40 ------- 1 1.0 0.0 76 164
- 0.271792 1 0 ack 40 ------- 1 1.0 0.0 76 164
r 0.271968 1 0 ack 40 ------- 1 1.0 0.0 68 148
+ 0.271968 0 1 tcp 1540 ------- 1 0.0 1.0 88 165
- 0.27288 0 1 tcp 1540 ------- 1 0.0 1.0 86 161
r 0.273024 0 1 tcp 1540 ------- 1 0.0 1.0 77 143
+ 0.273024 1 0 ack 40 ------- 1 1.0 0.0 77 166
- 0.273024 1 0 ack 40 ------- 1 1.0 0.0 77 166
r 0.2732 1 0 ack 40 ------- 1 1.0 0.0 69 150
+ 0.2732 0 1 tcp 1540 ------- 1 0.0 1.0 89 167
- 0.274112 0 1 tcp 1540 ------- 1 0.0 1.0 87 163
r 0.274256 0 1 tcp 1540 ------- 1 0.0 1.0 78 145
+ 0.274256 1 0 ack 40 ------- 1 1.0 0.0 78 168
- 0.274256 1 0 ack 40 ------- 1 1.0 0.0 78 168
r 0.274432 1 0 ack 40 ------- 1 1.0 0.0 70 152
+ 0.274432 0 1 tcp 1540 ------- 1 0.0 1.0 90 169
- 0.275344 0 1 tcp 1540 ------- 1 0.0 1.0 88 165
r 0.275488 0 1 tcp 1540 ------- 1 0.0 1.0 79 147
+ 0.275488 1 0 ack 40 ------- 1 1.0 0.0 79 170
- 0.275488 1 0 ack 40 ------- 1 1.0 0.0 79 170
r 0.275664 1 0 ack 40 ------- 1 1.0 0.0 71 154
+ 0.275664 0 1 tcp 1540 ------- 1 0.0 1.0 91 171
- 0.276576 0 1 tcp 1540 ------- 1 0.0 1.0 89 167
r 0.27672 0 1 tcp 1540 ------- 1 0.0 1.0 80 149
+ 0.27672 1 0 ack 40 ------- 1 1.0 0.0 80 172
- 0.27672 1 0 ack 40 ------- 1 1.0 0.0 80 172
r 0.276896 1 0 ack 40 ------- 1 1.0 0.0 72 156
+ 0.276896 0 1 tcp 1540 ------- 1 0.0 1.0 92 173
- 0.277808 0 1 tcp 1540 ------- 1 0.0 1.0 90 169
r 0.277952 0 1 tcp 1540 ------- 1 0.0 1.0 81 151
+ 0.277952 1 0 ack 40 ------- 1 1.0 0.0 81 174
- 0.277952 1 0 ack 40 ------- 1 1.0 0.0 81 174
r 0.278128 1 0 ack 40 ------- 1 1.0 0.0 73 158
+ 0.278128 0 1 tcp 1540 ------- 1 0.0 1.0 93 175
- 0.27904 0 1 tcp 1540 ------- 1 0.0 1.0 91 171
r 0.279184 0 1 tcp 1540 ------- 1 0.0 1.0 82 153
+ 0.279184 1 0 ack 40 ------- 1 1.0 0.0 82 176
- 0.279184 1 0 ack 40 ------- 1 1.0 0.0 82 176
r 0.27936 1 0 ack 40 ------- 1 1.0 0.0 74 160
+ 0.27936 0 1 tcp 1540 ------- 1 0.0 1.0 94 177
- 0.280272 0 1 tcp 1540 ------- 1 0.0 1.0 92 173
r 0.280416 0 1 tcp 1540 ------- 1 0.0 1.0 83 155
+ 0.280416 1 0 ack 40 ------- 1 1.0 0.0 83 178
- 0.280416 1 0 ack 40 ------- 1 1.0 0.0 83 178
r 0.280592 1 0 ack 40 ------- 1 1.0 0.0 75 162
+ 0.280592 0 1 tcp 1540 ------- 1 0.0 1.0 95 179
- 0.281504 0 1 tcp 1540 ------- 1 0.0 1.0 93 175
r 0.281648 0 1 tcp 1540 ------- 1 0.0 1.0 84 157
+ 0.281648 1 0 ack 40 ------- 1 1.0 0.0 84 180
- 0.281648 1 0 ack 40 ------- 1 1.0 0.0 84 180
r 0.281824 1 0 ack 40 ------- 1 1.0 0.0 76 164
+ 0.281824 0 1 tcp 1540 ------- 1 0.0 1.0 96 181
- 0.282736 0 1 tcp 1540 ------- 1 0.0 1.0 94 177
r 0.28288 0 1 tcp 1540 ------- 1 0.0 1.0 85 159
+ 0.28288 1 0 ack 40 ------- 1 1.0 0.0 85 182
- 0.28288 1 0 ack 40 ------- 1 1.0 0.0 85 182
r 0.283056 1 0 ack 40 ------- 1 1.0 0.0 77 166
+ 0.283056 0 1 tcp 1540 ------- 1 0.0 1.0 97 183
- 0.283968 0 1 tcp 1540 ------- 1 0.0 1.0 95 179
r 0.284112 0 1 tcp 1540 ------- 1 0.0 1.0 86 161
+ 0.284112 1 0 ack 40 ------- 1 1.0 0.0 86 184
- 0.284112 1 0 ack 40 ------- 1 1.0 0.0 86 184
r 0.284288 1 0 ack 40 ------- 1 1.0 0.0 78 168
+ 0.284288 0 1 tcp 1540 ------- 1 0.0 1.0 98 185
- 0.2852 0 1 tcp 1540 ------- 1 0.0 1.0 96 181
r 0.285344 0 1 tcp 1540 ------- 1 0.0 1.0 87 163
+ 0.285344 1 0 ack 40 ------- 1 1.0 0.0 87 186
- 0.285344 1 0 ack 40 ------- 1 1.0 0.0 87 186
r 0.28552 1 0 ack 40 ------- 1 1.0 0.0 79 170
+ 0.28552 0 1 tcp 1540 ------- 1 0.0 1.0 99 187
- 0.286432 0 1 tcp 1540 ------- 1 0.0 1.0 97 183
r 0.286576 0 1 tcp 1540 ------- 1 0.0 1.0 88 165
+ 0.286576 1 0 ack 40 ------- 1 1.0 0.0 88 188
- 0.286576 1 0 ack 40 ------- 1 1.0 0.0 88 188
r 0.286752 1 0 ack 40 ------- 1 1.0 0.0 80 172
+ 0.286752 0 1 tcp 1540 ------- 1 0.0 1.0 100 189
- 0.287664 0 1 tcp 1540 ------- 1 0.0 1.0 98 185
r 0.287808 0 1 tcp 1540 ------- 1 0.0 1.0 89 167
+ 0.287808 1 0 ack 40 ------- 1 1.0 0.0 89 190
- 0.287808 1 0 ack 40 ------- 1 1.0 0.0 89 190
r 0.287984 1 0 ack 40 ------- 1 1.0 0.0 81 174
+ 0.287984 0 1 tcp 1540 ------- 1 0.0 1.0 101 191
- 0.288896 0 1 tcp 1540 ------- 1 0.0 1.0 99 187
r 0.28904 0 1 tcp 1540 ------- 1 0.0 1.0 90 169
+ 0.28904 1 0 ack 40 ------- 1 1.0 0.0 90 192
- 0.28904 1 0 ack 40 ------- 1 1.0 0.0 90 192
r 0.289216 1 0 ack 40 ------- 1 1.0 0.0 82 176
+ 0.289216 0 1 tcp 1540 ------- 1 0.0 1.0 102 193
- 0.290128 0 1 tcp 1540 ------- 1 0.0 1.0 100 189
r 0.290272 0 1 tcp 1540 ------- 1 0.0 1.0 91 171
+ 0.290272 1 0 ack 40 ------- 1 1.0 0.0 91 194
- 0.290272 1 0 ack 40 ------- 1 1.0 0.0 91 194
r 0.290448 1 0 ack 40 ------- 1 1.0 0.0 83 178
+ 0.290448 0 1 tcp 1540 ------- 1 0.0 1.0 103 195
- 0.29136 0 1 tcp 1540 ------- 1 0.0 1.0 101 191
r 0.291504 0 1 tcp 1540 ------- 1 0.0 1.0 92 173
+ 0.291504 1 0 ack 40 ------- 1 1.0 0.0 92 196
- 0.291504 1 0 ack 40 ------- 1 1.0 0.0 92 196
r 0.29168 1 0 ack 40 ------- 1 1.0 0.0 84 180
+ 0.29168 0 1 tcp 1540 ------- 1 0.0 1.0 104 197
- 0.292592 0 1 tcp 1540 ------- 1 0.0 1.0 102 193
r 0.292736 0 1 tcp 1540 ------- 1 0.0 1.0 93 175
+ 0.292736 1 0 ack 40 ------- 1 1.0 0.0 93 198
- 0.292736 1 0 ack 40 ------- 1 1.0 0.0 93 198
r 0.292912 1 0 ack 40 ------- 1 1.0 0.0 85 182
+ 0.292912 0 1 tcp 1540 ------- 1 0.0 1.0 105 199
- 0.293824 0 1 tcp 1540 ------- 1 0.0 1.0 103 195
r 0.293968 0 1 tcp 1540 ------- 1 0.0 1.0 94 177
+ 0.293968 1 0 ack 40 ------- 1 1.0 0.0 94 200
- 0.293968 1 0 ack 40 ------- 1 1.0 0.0 94 200
r 0.294144 1 0 ack 40 ------- 1 1.0 0.0 86 184
+ 0.294144 0 1 tcp 1540 ------- 1 0.0 1.0 106 201
- 0.295056 0 1 tcp 1540 ------- 1 0.0 1.0 104 197
r 0.2952 0 1 tcp 1540 ------- 1 0.0 1.0 95 179
+ 0.2952 1 0 ack 40 ------- 1 1.0 0.0 95 202
- 0.2952 1 0 ack 40 ------- 1 1.0 0.0 95 202
r 0.295376 1 0 ack 40 ------- 1 1.0 0.0 87 186
+ 0.295376 0 1 tcp 1540 ------- 1 0.0 1.0 107 203
- 0.296288 0 1 tcp 1540 ------- 1 0.0 1.0 105 199
r 0.296432 0 1 tcp 1540 ------- 1 0.0 1.0 96 181
+ 0.296432 1 0 ack 40 ------- 1 1.0 0.0 96 204
- 0.296432 1 0 ack 40 ------- 1 1.0 0.0 96 204
r 0.296608 1 0 ack 40 ------- 1 1.0 0.0 88 188
+ 0.296608 0 1 tcp 1540 ------- 1 0.0 1.0 108 205
- 0.29752 0 1 tcp 1540 ------- 1 0.0 1.0 106 201
r 0.297664 0 1 tcp 1540 ------- 1 0.0 1.0 97 183
+ 0.297664 1 0 ack 40 ------- 1 1.0 0.0 97 206
- 0.297664 1 0 ack 40 ------- 1 1.0 0.0 97 206
r 0.29784 1 0 ack 40 ------- 1 1.0 0.0 89 190
+ 0.29784 0 1 tcp 1540 ------- 1 0.0 1.0 109 207
- 0.298752 0 1 tcp 1540 ------- 1 0.0 1.0 107 203
r 0.298896 0 1 tcp 1540 ------- 1 0.0 1.0 98 185
+ 0.298896 1 0 ack 40 ------- 1 1.0 0.0 98 208
- 0.298896 1 0 ack 40 ------- 1 1.0 0.0 98 208
r 0.299072 1 0 ack 40 ------- 1 1.0 0.0 90 192
+ 0.299072 0 1 tcp 1540 ------- 1 0.0 1.0 110 209
- 0.299984 0 1 tcp 1540 ------- 1 0.0 1.0 108 205
r 0.300128 0 1 tcp 1540 ------- 1 0.0 1.0 99 187
+ 0.300128 1 0 ack 40 ------- 1 1.0 0.0 99 210
- 0.300128 1 0 ack 40 ------- 1 1.0 0.0 99 210
r 0.300304 1 0 ack 40 ------- 1 1.0 0.0 91 194
+ 0.300304 0 1 tcp 1540 ------- 1 0.0 1.0 111 211
- 0.301216 0 1 tcp 1540 ------- 1 0.0 1.0 109 207
r 0.30136 0 1 tcp 1540 ------- 1 0.0 1.0 100 189
+ 0.30136 1 0 ack 40 ------- 1 1.0 0.0 100 212
- 0.30136 1 0 ack 40 ------- 1 1.0 0.0 100 212
r 0.301536 1 0 ack 40 ------- 1 1.0 0.0 92 196
+ 0.301536 0 1 tcp 1540 ------- 1 0.0 1.0 112 213
- 0.302448 0 1 tcp 1540 ------- 1 0.0 1.0 110 209
r 0.302592 0 1 tcp 1540 ------- 1 0.0 1.0 101 191
+ 0.302592 1 0 ack 40 ------- 1 1.0 0.0 101 214
- 0.302592 1 0 ack 40 ------- 1 1.0 0.0 101 214
r 0.302768 1 0 ack 40 ------- 1 1.0 0.0 93 198
+ 0.302768 0 1 tcp 1540 ------- 1 0.0 1.0 113 215
- 0.30368 0 1 tcp 1540 ------- 1 0.0 1.0 111 211
r 0.303824 0 1 tcp 1540 ------- 1 0.0 1.0 102 193
+ 0.303824 1 0 ack 40 ------- 1 1.0 0.0 102 216
- 0.303824 1 0 ack 40 ------- 1 1.0 0.0 102 216
r 0.304 1 0 ack 40 ------- 1 1.0 0.0 94 200
+ 0.304 0 1 tcp 1540 ------- 1 0.0 1.0 114 217
- 0.304912 0 1 tcp 1540 ------- 1 0.0 1.0 112 213
r 0.305056 0 1 tcp 1540 ------- 1 0.0 1.0 103 195
+ 0.305056 1 0 ack 40 ------- 1 1.0 0.0 103 218
- 0.305056 1 0 ack 40 ------- 1 1.0 0.0 103 218